 running on   20 total cores
 distrk:  each k-point on   20 cores,    1 groups
 distr:  one band on   10 cores,    2 groups
 using from now: INCAR     
 vasp.5.4.1 24Jun15 (build Nov 12 2015 12:40:29) complex                        
  
 POSCAR found type information on POSCAR  Si In H 
 POSCAR found :  3 types and     272 ions
 scaLAPACK will be used

 ----------------------------------------------------------------------------- 
|                                                                             |
|           W    W    AA    RRRRR   N    N  II  N    N   GGGG   !!!           |
|           W    W   A  A   R    R  NN   N  II  NN   N  G    G  !!!           |
|           W    W  A    A  R    R  N N  N  II  N N  N  G       !!!           |
|           W WW W  AAAAAA  RRRRR   N  N N  II  N  N N  G  GGG   !            |
|           WW  WW  A    A  R   R   N   NN  II  N   NN  G    G                |
|           W    W  A    A  R    R  N    N  II  N    N   GGGG   !!!           |
|                                                                             |
|      For optimal performance we recommend to set                            |
|        NCORE= 4 - approx SQRT( number of cores)                             |
|      NCORE specifies how many cores store one orbital (NPAR=cpu/NCORE).     |
|      This setting can  greatly improve the performance of VASP for DFT.     |
|      The default, NPAR=number of cores might be grossly inefficient         |
|      on modern multi-core architectures or massively parallel machines.     |
|      Do your own testing !!!!                                               |
|      Unfortunately you need to use the default for GW and RPA calculations. |
|      (for HF NCORE is supported but not extensively tested yet)             |
|                                                                             |
 ----------------------------------------------------------------------------- 

 LDA part: xc-table for Ceperly-Alder, standard interpolation
 POSCAR, INCAR and KPOINTS ok, starting setup
 WARNING: small aliasing (wrap around) errors must be expected
 FFT: planning ...
 WAVECAR not read
 WARNING: random wavefunctions but no delay for mixing, default for NELMDL
 entering main loop
       N       E                     dE             d eps       ncg     rms          rms(c)
DAV:   1     0.391622596374E+04    0.39162E+04   -0.20831E+05  5288   0.620E+02
DAV:   2    -0.948370109075E+03   -0.48646E+04   -0.47013E+04  6568   0.169E+02
DAV:   3    -0.143605012091E+04   -0.48768E+03   -0.48225E+03  5576   0.547E+01
DAV:   4    -0.145900978298E+04   -0.22960E+02   -0.22793E+02  7320   0.128E+01
DAV:   5    -0.145970172656E+04   -0.69194E+00   -0.69090E+00  7008   0.220E+00    0.351E+01
RMM:   6    -0.142492965910E+04    0.34772E+02   -0.45394E+01  5031   0.363E+00    0.197E+01
RMM:   7    -0.141331952585E+04    0.11610E+02   -0.30215E+01  5006   0.372E+00    0.398E+00
RMM:   8    -0.141287317543E+04    0.44635E+00   -0.28741E+00  5291   0.121E+00    0.162E+00
RMM:   9    -0.141274283234E+04    0.13034E+00   -0.84706E-01  5214   0.598E-01    0.636E-01
RMM:  10    -0.141271091573E+04    0.31917E-01   -0.16029E-01  5275   0.250E-01    0.447E-01
RMM:  11    -0.141270315522E+04    0.77605E-02   -0.28720E-02  5216   0.112E-01    0.286E-01
RMM:  12    -0.141270798279E+04   -0.48276E-02   -0.17316E-02  5248   0.676E-02    0.203E-01
RMM:  13    -0.141271171040E+04   -0.37276E-02   -0.90150E-03  4971   0.532E-02    0.118E-01
RMM:  14    -0.141272685409E+04   -0.15144E-01   -0.80998E-03  4962   0.523E-02    0.711E-02
RMM:  15    -0.141273926579E+04   -0.12412E-01   -0.35819E-03  4954   0.334E-02    0.414E-02
RMM:  16    -0.141274682361E+04   -0.75578E-02   -0.11721E-03  4933   0.185E-02    0.258E-02
RMM:  17    -0.141275179988E+04   -0.49763E-02   -0.45418E-04  4755   0.119E-02    0.189E-02
RMM:  18    -0.141275595947E+04   -0.41596E-02   -0.26081E-04  4603   0.943E-03    0.941E-03
RMM:  19    -0.141275776477E+04   -0.18053E-02   -0.11926E-04  4138   0.629E-03    0.507E-03
RMM:  20    -0.141275856777E+04   -0.80300E-03   -0.27465E-05  3334   0.308E-03    0.298E-03
RMM:  21    -0.141275910995E+04   -0.54219E-03   -0.22220E-05  3280   0.269E-03    0.184E-03
RMM:  22    -0.141275936922E+04   -0.25927E-03   -0.12819E-05  2966   0.198E-03    0.120E-03
RMM:  23    -0.141275946561E+04   -0.96381E-04   -0.38740E-06  2111   0.123E-03    0.693E-04
RMM:  24    -0.141275953094E+04   -0.65330E-04   -0.22492E-06  2004   0.113E-03    0.364E-04
RMM:  25    -0.141275954648E+04   -0.15548E-04   -0.58482E-07  1490   0.847E-04    0.278E-04
RMM:  26    -0.141275956571E+04   -0.19228E-04   -0.31497E-07  1329   0.803E-04    0.137E-04
RMM:  27    -0.141275956915E+04   -0.34397E-05   -0.64535E-08  1139   0.743E-04
   1 F= -.14127596E+04 E0= -.14127841E+04  d E =-.141276E+04
 curvature:   0.00 expect dE= 0.000E+00 dE for cont linesearch  0.000E+00
 trial: gam= 0.00000 g(F)=  0.828E-01 g(S)=  0.000E+00 ort = 0.000E+00 (trialstep = 0.100E+01)
 search vector abs. value=  0.828E-01
 bond charge predicted
       N       E                     dE             d eps       ncg     rms          rms(c)
DAV:   1    -0.141281424855E+04   -0.54683E-01   -0.86434E-01  5656   0.866E-01    0.198E-01
RMM:   2    -0.141282024360E+04   -0.59950E-02   -0.69816E-02  4977   0.250E-01    0.143E-01
RMM:   3    -0.141282005141E+04    0.19219E-03   -0.39817E-03  5354   0.618E-02    0.872E-02
RMM:   4    -0.141281999428E+04    0.57129E-04   -0.17495E-03  5157   0.327E-02    0.162E-02
RMM:   5    -0.141281997806E+04    0.16220E-04   -0.78758E-05  4498   0.830E-03    0.101E-02
RMM:   6    -0.141281997736E+04    0.69489E-06   -0.73833E-05  4456   0.581E-03
   2 F= -.14128200E+04 E0= -.14128441E+04  d E =-.604082E-01
 trial-energy change:   -0.060408  1 .order   -0.060578   -0.082796   -0.038359
 step:   1.9025(harm=  1.8632)  dis= 0.00993  next Energy= -1412.837162 (dE=-0.776E-01)
 bond charge predicted
       N       E                     dE             d eps       ncg     rms          rms(c)
DAV:   1    -0.141283212700E+04   -0.12149E-01   -0.70429E-01  5416   0.781E-01    0.180E-01
RMM:   2    -0.141283689660E+04   -0.47696E-02   -0.55889E-02  4971   0.225E-01    0.129E-01
RMM:   3    -0.141283673854E+04    0.15806E-03   -0.31903E-03  5325   0.557E-02    0.779E-02
RMM:   4    -0.141283676232E+04   -0.23779E-04   -0.13678E-03  5166   0.288E-02    0.256E-02
RMM:   5    -0.141283669700E+04    0.65317E-04   -0.10319E-04  4632   0.792E-03    0.126E-02
RMM:   6    -0.141283668715E+04    0.98493E-05   -0.41719E-05  3778   0.477E-03
   3 F= -.14128367E+04 E0= -.14128605E+04  d E =-.771180E-01
 curvature:  -0.93 expect dE=-0.530E-01 dE for cont linesearch -0.274E-04
 trial: gam= 0.70691 g(F)=  0.570E-01 g(S)=  0.000E+00 ort =-0.156E-02 (trialstep = 0.102E+01)
 search vector abs. value=  0.961E-01
 bond charge predicted
       N       E                     dE             d eps       ncg     rms          rms(c)
DAV:   1    -0.141288173714E+04   -0.45040E-01   -0.71151E-01  5216   0.765E-01    0.195E-01
RMM:   2    -0.141288584857E+04   -0.41114E-02   -0.49851E-02  4979   0.213E-01    0.123E-01
RMM:   3    -0.141288580154E+04    0.47031E-04   -0.33185E-03  5352   0.545E-02    0.625E-02
RMM:   4    -0.141288579540E+04    0.61357E-05   -0.77959E-04  5287   0.235E-02    0.118E-02
RMM:   5    -0.141288578951E+04    0.58969E-05   -0.47844E-05  3577   0.632E-03
   4 F= -.14128858E+04 E0= -.14129092E+04  d E =-.491024E-01
 trial-energy change:   -0.049102  1 .order   -0.049079   -0.056797   -0.041361
 step:   3.7409(harm=  3.7409)  dis= 0.02771  next Energy= -1412.941180 (dE=-0.104E+00)
 bond charge predicted
       N       E                     dE             d eps       ncg     rms          rms(c)
DAV:   1    -0.141291203111E+04   -0.26236E-01   -0.51118E+00  5088   0.205E+00    0.521E-01
RMM:   2    -0.141294181196E+04   -0.29781E-01   -0.35844E-01  4977   0.571E-01    0.330E-01
RMM:   3    -0.141294146975E+04    0.34222E-03   -0.23840E-02  5351   0.146E-01    0.169E-01
RMM:   4    -0.141294165997E+04   -0.19022E-03   -0.59634E-03  5333   0.632E-02    0.602E-02
RMM:   5    -0.141294127979E+04    0.38018E-03   -0.52023E-04  5283   0.175E-02    0.286E-02
RMM:   6    -0.141294122109E+04    0.58706E-04   -0.25622E-04  4980   0.102E-02    0.129E-02
RMM:   7    -0.141294123891E+04   -0.17819E-04   -0.55988E-05  3896   0.462E-03    0.523E-03
RMM:   8    -0.141294124475E+04   -0.58426E-05   -0.64279E-06  3023   0.255E-03
   5 F= -.14129412E+04 E0= -.14129639E+04  d E =-.104558E+00
 curvature:  -3.22 expect dE=-0.126E+00 dE for cont linesearch -0.192E-07
 trial: gam= 0.65548 g(F)=  0.392E-01 g(S)=  0.000E+00 ort =-0.239E-04 (trialstep = 0.156E+01)
 search vector abs. value=  0.805E-01
 bond charge predicted
       N       E                     dE             d eps       ncg     rms          rms(c)
DAV:   1    -0.141297601960E+04   -0.34781E-01   -0.13810E+00  5120   0.107E+00    0.263E-01
RMM:   2    -0.141298374973E+04   -0.77301E-02   -0.92310E-02  4984   0.292E-01    0.170E-01
RMM:   3    -0.141298369350E+04    0.56222E-04   -0.63798E-03  5385   0.749E-02    0.892E-02
RMM:   4    -0.141298367576E+04    0.17744E-04   -0.13750E-03  5279   0.314E-02    0.175E-02
RMM:   5    -0.141298366989E+04    0.58747E-05   -0.92325E-05  4767   0.846E-03
   6 F= -.14129837E+04 E0= -.14130058E+04  d E =-.424251E-01
 trial-energy change:   -0.042425  1 .order   -0.042358   -0.061181   -0.023535
 step:   2.5378(harm=  2.5378)  dis= 0.01472  next Energy= -1412.990960 (dE=-0.497E-01)
 bond charge predicted
       N       E                     dE             d eps       ncg     rms          rms(c)
DAV:   1    -0.141298849955E+04   -0.48238E-02   -0.54183E-01  5384   0.673E-01    0.166E-01
RMM:   2    -0.141299155342E+04   -0.30539E-02   -0.36615E-02  4981   0.184E-01    0.108E-01
RMM:   3    -0.141299154480E+04    0.86218E-05   -0.25559E-03  5382   0.473E-02    0.570E-02
RMM:   4    -0.141299164291E+04   -0.98110E-04   -0.61759E-04  5297   0.200E-02    0.291E-02
RMM:   5    -0.141299154499E+04    0.97920E-04   -0.79301E-05  4115   0.628E-03    0.960E-03
RMM:   6    -0.141299154712E+04   -0.21285E-05   -0.29613E-05  3443   0.409E-03
   7 F= -.14129915E+04 E0= -.14130133E+04  d E =-.503024E-01
 curvature:  -2.61 expect dE=-0.688E-01 dE for cont linesearch -0.173E-05
 trial: gam= 0.66587 g(F)=  0.264E-01 g(S)=  0.000E+00 ort = 0.231E-03 (trialstep = 0.176E+01)
 search vector abs. value=  0.624E-01
 bond charge predicted
       N       E                     dE             d eps       ncg     rms          rms(c)
DAV:   1    -0.141301863394E+04   -0.27089E-01   -0.13225E+00  5064   0.104E+00    0.265E-01
RMM:   2    -0.141302527573E+04   -0.66418E-02   -0.83257E-02  4985   0.275E-01    0.167E-01
RMM:   3    -0.141302518191E+04    0.93821E-04   -0.59070E-03  5412   0.716E-02    0.825E-02
RMM:   4    -0.141302513897E+04    0.42941E-04   -0.11236E-03  5291   0.291E-02    0.156E-02
RMM:   5    -0.141302513280E+04    0.61727E-05   -0.75127E-05  4338   0.763E-03
   8 F= -.14130251E+04 E0= -.14130467E+04  d E =-.335857E-01
 trial-energy change:   -0.033586  1 .order   -0.033211   -0.046680   -0.019742
 step:   2.8889(harm=  3.0443)  dis= 0.01394  next Energy= -1413.031594 (dE=-0.400E-01)
 bond charge predicted
       N       E                     dE             d eps       ncg     rms          rms(c)
DAV:   1    -0.141302967888E+04   -0.45399E-02   -0.55144E-01  5224   0.669E-01    0.173E-01
RMM:   2    -0.141303247706E+04   -0.27982E-02   -0.35095E-02  4982   0.179E-01    0.109E-01
RMM:   3    -0.141303247115E+04    0.59088E-05   -0.25082E-03  5419   0.465E-02    0.569E-02
RMM:   4    -0.141303263941E+04   -0.16826E-03   -0.65576E-04  5355   0.191E-02    0.417E-02
RMM:   5    -0.141303242877E+04    0.21064E-03   -0.12586E-04  4432   0.713E-03    0.830E-03
RMM:   6    -0.141303243269E+04   -0.39142E-05   -0.24748E-05  3325   0.374E-03
   9 F= -.14130324E+04 E0= -.14130538E+04  d E =-.408856E-01
 curvature:  -3.52 expect dE=-0.106E+00 dE for cont linesearch -0.798E-04
 trial: gam= 1.11371 g(F)=  0.301E-01 g(S)=  0.000E+00 ort = 0.119E-02 (trialstep = 0.112E+01)
 search vector abs. value=  0.110E+00
 bond charge predicted
       N       E                     dE             d eps       ncg     rms          rms(c)
DAV:   1    -0.141305849839E+04   -0.26070E-01   -0.93558E-01  5072   0.855E-01    0.233E-01
RMM:   2    -0.141306258089E+04   -0.40825E-02   -0.55699E-02  4978   0.224E-01    0.139E-01
RMM:   3    -0.141306250497E+04    0.75914E-04   -0.42291E-03  5415   0.594E-02    0.609E-02
RMM:   4    -0.141306250383E+04    0.11405E-05   -0.64058E-04  5353   0.219E-02    0.139E-02
RMM:   5    -0.141306250476E+04   -0.93079E-06   -0.52349E-05  3752   0.609E-03
  10 F= -.14130625E+04 E0= -.14130834E+04  d E =-.300721E-01
 trial-energy change:   -0.030072  1 .order   -0.029920   -0.035289   -0.024550
 step:   3.1920(harm=  3.6927)  dis= 0.01462  next Energy= -1413.086048 (dE=-0.536E-01)
 bond charge predicted
       N       E                     dE             d eps       ncg     rms          rms(c)
DAV:   1    -0.141307707636E+04   -0.14573E-01   -0.31695E+00  5024   0.157E+00    0.430E-01
RMM:   2    -0.141309102152E+04   -0.13945E-01   -0.18886E-01  4973   0.413E-01    0.257E-01
RMM:   3    -0.141309070916E+04    0.31235E-03   -0.14350E-02  5401   0.110E-01    0.113E-01
RMM:   4    -0.141309065271E+04    0.56454E-04   -0.22252E-03  5379   0.408E-02    0.230E-02
RMM:   5    -0.141309064569E+04    0.70221E-05   -0.17499E-04  5043   0.110E-02    0.151E-02
RMM:   6    -0.141309064538E+04    0.30250E-06   -0.58166E-05  3945   0.558E-03
  11 F= -.14130906E+04 E0= -.14131104E+04  d E =-.582127E-01
 curvature:  -6.23 expect dE=-0.123E+00 dE for cont linesearch -0.129E-02
 ZBRENT: extrapolating
 opt :   3.7697  next Energy= -1413.092023 (dE=-0.596E-01)
 bond charge predicted
       N       E                     dE             d eps       ncg     rms          rms(c)
DAV:   1    -0.141309092024E+04   -0.27455E-03   -0.24738E-01  5424   0.440E-01    0.121E-01
RMM:   2    -0.141309199759E+04   -0.10774E-02   -0.14785E-02  4980   0.116E-01    0.723E-02
RMM:   3    -0.141309198917E+04    0.84250E-05   -0.11352E-03  5394   0.309E-02    0.316E-02
RMM:   4    -0.141309200061E+04   -0.11442E-04   -0.16623E-04  5087   0.115E-02    0.635E-03
RMM:   5    -0.141309201059E+04   -0.99771E-05   -0.16178E-05  3108   0.365E-03
  12 F= -.14130920E+04 E0= -.14131114E+04  d E =-.595779E-01
 curvature:  -6.67 expect dE=-0.183E+00 dE for cont linesearch -0.257E-05
 trial: gam= 1.00385 g(F)=  0.274E-01 g(S)=  0.000E+00 ort =-0.206E-03 (trialstep = 0.132E+01)
 search vector abs. value=  0.138E+00
 bond charge predicted
       N       E                     dE             d eps       ncg     rms          rms(c)
DAV:   1    -0.141311507600E+04   -0.23075E-01   -0.15011E+00  5012   0.108E+00    0.312E-01
RMM:   2    -0.141312109327E+04   -0.60173E-02   -0.87355E-02  4980   0.279E-01    0.181E-01
RMM:   3    -0.141312089027E+04    0.20300E-03   -0.67347E-03  5377   0.745E-02    0.763E-02
RMM:   4    -0.141312087393E+04    0.16339E-04   -0.10388E-03  5392   0.279E-02    0.184E-02
RMM:   5    -0.141312088183E+04   -0.78978E-05   -0.97930E-05  4485   0.767E-03
  13 F= -.14131209E+04 E0= -.14131397E+04  d E =-.288712E-01
 trial-energy change:   -0.028871  1 .order   -0.028896   -0.035918   -0.021875
 step:   3.3740(harm=  3.3740)  dis= 0.01838  next Energy= -1413.137945 (dE=-0.459E-01)
 bond charge predicted
       N       E                     dE             d eps       ncg     rms          rms(c)
DAV:   1    -0.141312489891E+04   -0.40250E-02   -0.36446E+00  5012   0.169E+00    0.488E-01
RMM:   2    -0.141313960002E+04   -0.14701E-01   -0.21284E-01  4978   0.435E-01    0.283E-01
RMM:   3    -0.141313907291E+04    0.52711E-03   -0.16388E-02  5373   0.116E-01    0.120E-01
RMM:   4    -0.141313902740E+04    0.45511E-04   -0.25844E-03  5411   0.438E-02    0.307E-02
RMM:   5    -0.141313902739E+04    0.82364E-08   -0.25623E-04  5213   0.120E-02    0.249E-02
RMM:   6    -0.141313898031E+04    0.47086E-04   -0.83423E-05  4251   0.638E-03    0.925E-03
RMM:   7    -0.141313899198E+04   -0.11669E-04   -0.12910E-05  3115   0.294E-03    0.447E-03
RMM:   8    -0.141313900621E+04   -0.14228E-04   -0.39203E-06  2956   0.194E-03    0.200E-03
RMM:   9    -0.141313902299E+04   -0.16788E-04   -0.20017E-06  2223   0.137E-03    0.119E-03
RMM:  10    -0.141313904733E+04   -0.24336E-04   -0.31479E-06  2412   0.132E-03    0.790E-04
RMM:  11    -0.141313906665E+04   -0.19324E-04   -0.24096E-06  1902   0.108E-03    0.422E-04
RMM:  12    -0.141313907683E+04   -0.10175E-04   -0.14590E-06  1659   0.967E-04    0.293E-04
RMM:  13    -0.141313908261E+04   -0.57784E-05   -0.82215E-07  1462   0.873E-04
  14 F= -.14131391E+04 E0= -.14131570E+04  d E =-.470720E-01
 curvature:  -8.55 expect dE=-0.231E+00 dE for cont linesearch -0.749E-04
 trial: gam= 0.97827 g(F)=  0.270E-01 g(S)=  0.000E+00 ort = 0.110E-02 (trialstep = 0.148E+01)
 search vector abs. value=  0.161E+00
 bond charge predicted
       N       E                     dE             d eps       ncg     rms          rms(c)
DAV:   1    -0.141316722952E+04   -0.28153E-01   -0.20562E+00  4980   0.126E+00    0.379E-01
RMM:   2    -0.141317492051E+04   -0.76910E-02   -0.11482E-01  4972   0.319E-01    0.220E-01
RMM:   3    -0.141317452894E+04    0.39158E-03   -0.92812E-03  5399   0.868E-02    0.872E-02
RMM:   4    -0.141317447600E+04    0.52940E-04   -0.13192E-03  5452   0.314E-02    0.203E-02
RMM:   5    -0.141317445735E+04    0.18646E-04   -0.10772E-04  4638   0.864E-03    0.105E-02
RMM:   6    -0.141317445642E+04    0.93098E-06   -0.37541E-05  3536   0.474E-03
  15 F= -.14131745E+04 E0= -.14131917E+04  d E =-.353738E-01
 trial-energy change:   -0.035374  1 .order   -0.034576   -0.041567   -0.027586
 step:   3.1680(harm=  4.4030)  dis= 0.01884  next Energy= -1413.191347 (dE=-0.523E-01)
 bond charge predicted
       N       E                     dE             d eps       ncg     rms          rms(c)
DAV:   1    -0.141318721582E+04   -0.12758E-01   -0.26669E+00  4980   0.144E+00    0.431E-01
RMM:   2    -0.141319719972E+04   -0.99839E-02   -0.14907E-01  4976   0.363E-01    0.250E-01
RMM:   3    -0.141319668035E+04    0.51937E-03   -0.12040E-02  5397   0.989E-02    0.998E-02
RMM:   4    -0.141319667216E+04    0.81870E-05   -0.17983E-03  5485   0.360E-02    0.326E-02
RMM:   5    -0.141319661398E+04    0.58176E-04   -0.20598E-04  5105   0.104E-02    0.217E-02
RMM:   6    -0.141319658204E+04    0.31943E-04   -0.61790E-05  3964   0.552E-03    0.895E-03
RMM:   7    -0.141319658657E+04   -0.45294E-05   -0.14549E-05  3096   0.305E-03
  16 F= -.14131966E+04 E0= -.14132132E+04  d E =-.575040E-01
 curvature: -10.39 expect dE=-0.375E+00 dE for cont linesearch -0.316E-02
 ZBRENT: increasing intervall
 opt :   6.5421  next Energy= -1413.181008 (dE=-0.419E-01)
 bond charge predicted
       N       E                     dE             d eps       ncg     rms          rms(c)
DAV:   1    -0.141314891840E+04    0.47664E-01   -0.10661E+01  4976   0.288E+00    0.862E-01
RMM:   2    -0.141318913233E+04   -0.40214E-01   -0.59794E-01  4973   0.727E-01    0.500E-01
RMM:   3    -0.141318689476E+04    0.22376E-02   -0.48165E-02  5384   0.198E-01    0.199E-01
RMM:   4    -0.141318657641E+04    0.31835E-03   -0.70246E-03  5466   0.721E-02    0.469E-02
RMM:   5    -0.141318649130E+04    0.85111E-04   -0.55648E-04  5299   0.196E-02    0.243E-02
RMM:   6    -0.141318649885E+04   -0.75506E-05   -0.20088E-04  5021   0.991E-03    0.106E-02
RMM:   7    -0.141318651972E+04   -0.20872E-04   -0.17960E-05  3172   0.361E-03    0.451E-03
RMM:   8    -0.141318654989E+04   -0.30168E-04   -0.82652E-06  3020   0.243E-03    0.293E-03
RMM:   9    -0.141318656181E+04   -0.11918E-04   -0.22125E-06  2513   0.147E-03    0.210E-03
RMM:  10    -0.141318659273E+04   -0.30924E-04   -0.34731E-06  2430   0.137E-03    0.144E-03
RMM:  11    -0.141318663281E+04   -0.40075E-04   -0.51577E-06  2257   0.130E-03    0.726E-04
RMM:  12    -0.141318665806E+04   -0.25251E-04   -0.35477E-06  2011   0.114E-03    0.430E-04
RMM:  13    -0.141318667168E+04   -0.13618E-04   -0.20106E-06  1701   0.965E-04    0.211E-04
RMM:  14    -0.141318667754E+04   -0.58596E-05   -0.71644E-07  1383   0.819E-04
  17 F= -.14131867E+04 E0= -.14132018E+04  d E =-.475949E-01
 curvature:  51.18 expect dE= 0.851E+01 dE for cont linesearch  0.539E-01
 ZBRENT: bracketing found
 ZBRENT: interpolating
 opt :   4.3477  next Energy= -1413.200718 (dE=-0.616E-01)
 bond charge predicted
       N       E                     dE             d eps       ncg     rms          rms(c)
DAV:   1    -0.141318492079E+04    0.17509E-02   -0.45119E+00  4976   0.187E+00    0.562E-01
RMM:   2    -0.141320185220E+04   -0.16931E-01   -0.25381E-01  4972   0.473E-01    0.326E-01
RMM:   3    -0.141320097718E+04    0.87502E-03   -0.20374E-02  5400   0.128E-01    0.131E-01
RMM:   4    -0.141320084486E+04    0.13232E-03   -0.30234E-03  5460   0.467E-02    0.320E-02
RMM:   5    -0.141320079118E+04    0.53675E-04   -0.24136E-04  5143   0.129E-02    0.169E-02
RMM:   6    -0.141320078640E+04    0.47758E-05   -0.94900E-05  4583   0.688E-03
  18 F= -.14132008E+04 E0= -.14132168E+04  d E =-.617038E-01
 curvature:  -3.92 expect dE=-0.262E+00 dE for cont linesearch -0.400E-06
 trial: gam= 2.58747 g(F)=  0.667E-01 g(S)=  0.000E+00 ort = 0.128E-03 (trialstep = 0.289E+00)
 search vector abs. value=  0.115E+01
 bond charge predicted
       N       E                     dE             d eps       ncg     rms          rms(c)
DAV:   1    -0.141321803161E+04   -0.17240E-01   -0.53581E-01  5088   0.636E-01    0.195E-01
RMM:   2    -0.141321984551E+04   -0.18139E-02   -0.28679E-02  4979   0.159E-01    0.112E-01
RMM:   3    -0.141321976823E+04    0.77279E-04   -0.23733E-03  5402   0.435E-02    0.439E-02
RMM:   4    -0.141321984154E+04   -0.73308E-04   -0.41756E-04  5473   0.158E-02    0.273E-02
RMM:   5    -0.141321975724E+04    0.84293E-04   -0.69222E-05  3831   0.547E-03    0.850E-03
RMM:   6    -0.141321975696E+04    0.28435E-06   -0.13873E-05  3087   0.325E-03
  19 F= -.14132198E+04 E0= -.14132356E+04  d E =-.189706E-01
 ZBRENT: can't locate minimum, use default step
 trial-energy change:   -0.018971  1 .order   -0.018997   -0.019369   -0.018626
 step:   1.1552(harm=  7.5286)  dis= 0.01798  next Energy= -1413.453236 (dE=-0.252E+00)
 bond charge predicted
       N       E                     dE             d eps       ncg     rms          rms(c)
DAV:   1    -0.141326144024E+04   -0.41683E-01   -0.48185E+00  5000   0.191E+00    0.583E-01
RMM:   2    -0.141327782921E+04   -0.16389E-01   -0.25778E-01  4975   0.476E-01    0.334E-01
RMM:   3    -0.141327688074E+04    0.94847E-03   -0.21644E-02  5412   0.131E-01    0.128E-01
RMM:   4    -0.141327678077E+04    0.99974E-04   -0.29374E-03  5511   0.461E-02    0.312E-02
RMM:   5    -0.141327673919E+04    0.41578E-04   -0.24041E-04  5159   0.128E-02    0.174E-02
RMM:   6    -0.141327674244E+04   -0.32444E-05   -0.89065E-05  4350   0.654E-03
  20 F= -.14132767E+04 E0= -.14132919E+04  d E =-.759560E-01
 curvature: -14.48 expect dE=-0.868E+00 dE for cont linesearch -0.538E-01
 ZBRENT: increasing intervall
 opt :   2.8881  next Energy= -1413.391099 (dE=-0.190E+00)
 bond charge predicted
       N       E                     dE             d eps       ncg     rms          rms(c)
DAV:   1    -0.141331062660E+04   -0.33887E-01   -0.19293E+01  5000   0.382E+00    0.116E+00
RMM:   2    -0.141337722787E+04   -0.66601E-01   -0.10384E+00  4976   0.956E-01    0.668E-01
RMM:   3    -0.141337311708E+04    0.41108E-02   -0.86670E-02  5394   0.262E-01    0.257E-01
RMM:   4    -0.141337265539E+04    0.46168E-03   -0.12016E-02  5492   0.933E-02    0.615E-02
RMM:   5    -0.141337253363E+04    0.12177E-03   -0.95976E-04  5354   0.256E-02    0.334E-02
RMM:   6    -0.141337256653E+04   -0.32906E-04   -0.35745E-04  5154   0.128E-02    0.226E-02
RMM:   7    -0.141337254687E+04    0.19659E-04   -0.52845E-05  3758   0.474E-03    0.114E-02
RMM:   8    -0.141337258105E+04   -0.34182E-04   -0.23270E-05  3274   0.358E-03    0.462E-03
RMM:   9    -0.141337262326E+04   -0.42202E-04   -0.68818E-06  3038   0.223E-03    0.258E-03
RMM:  10    -0.141337267274E+04   -0.49479E-04   -0.58197E-06  2813   0.165E-03    0.177E-03
RMM:  11    -0.141337273572E+04   -0.62985E-04   -0.92097E-06  2591   0.158E-03    0.942E-04
RMM:  12    -0.141337275443E+04   -0.18709E-04   -0.20682E-06  1826   0.104E-03    0.685E-04
RMM:  13    -0.141337277910E+04   -0.24668E-04   -0.33321E-06  1955   0.110E-03    0.408E-04
RMM:  14    -0.141337278892E+04   -0.98255E-05   -0.10928E-06  1509   0.901E-04
  21 F= -.14133728E+04 E0= -.14133867E+04  d E =-.172003E+00
 curvature: -30.81 expect dE=-0.221E+01 dE for cont linesearch -0.575E-01
 ZBRENT: increasing intervall
 opt :   6.3538  next Energy= -1413.467252 (dE=-0.266E+00)
 bond charge predicted
       N       E                     dE             d eps       ncg     rms          rms(c)
DAV:   1    -0.141320922680E+04    0.16355E+00   -0.77331E+01  5016   0.764E+00    0.230E+00
RMM:   2    -0.141348746121E+04   -0.27823E+00   -0.42482E+00  4978   0.193E+00    0.133E+00
RMM:   3    -0.141347004710E+04    0.17414E-01   -0.34302E-01  5311   0.523E-01    0.516E-01
RMM:   4    -0.141346859300E+04    0.14541E-02   -0.53204E-02  5482   0.197E-01    0.122E-01
RMM:   5    -0.141346814287E+04    0.45013E-03   -0.39857E-03  5242   0.519E-02    0.599E-02
RMM:   6    -0.141346818329E+04   -0.40424E-04   -0.13589E-03  5411   0.262E-02    0.283E-02
RMM:   7    -0.141346825440E+04   -0.71110E-04   -0.16314E-04  4718   0.930E-03    0.116E-02
RMM:   8    -0.141346836712E+04   -0.11272E-03   -0.42623E-05  3465   0.489E-03    0.602E-03
RMM:   9    -0.141346842718E+04   -0.60064E-04   -0.10180E-05  3103   0.248E-03    0.507E-03
RMM:  10    -0.141346851235E+04   -0.85162E-04   -0.10910E-05  3070   0.214E-03    0.347E-03
RMM:  11    -0.141346866009E+04   -0.14774E-03   -0.22238E-05  3158   0.229E-03    0.185E-03
RMM:  12    -0.141346874397E+04   -0.83884E-04   -0.11917E-05  2348   0.161E-03    0.107E-03
RMM:  13    -0.141346878531E+04   -0.41334E-04   -0.57578E-06  2124   0.129E-03    0.624E-04
RMM:  14    -0.141346880102E+04   -0.15715E-04   -0.14985E-06  1604   0.970E-04    0.453E-04
RMM:  15    -0.141346882487E+04   -0.23848E-04   -0.27636E-06  1914   0.104E-03    0.304E-04
RMM:  16    -0.141346883145E+04   -0.65849E-05   -0.63223E-07  1383   0.804E-04
  22 F= -.14134688E+04 E0= -.14134800E+04  d E =-.268045E+00
 curvature: -50.64 expect dE=-0.996E+01 dE for cont linesearch -0.312E-02
 trial: gam= 2.56844 g(F)=  0.197E+00 g(S)=  0.000E+00 ort = 0.840E-02 (trialstep = 0.221E+00)
 search vector abs. value=  0.780E+01
 bond charge predicted
       N       E                     dE             d eps       ncg     rms          rms(c)
DAV:   1    -0.141350918363E+04   -0.40359E-01   -0.21521E+00  5200   0.127E+00    0.383E-01
RMM:   2    -0.141351666857E+04   -0.74849E-02   -0.12047E-01  4978   0.323E-01    0.218E-01
RMM:   3    -0.141351628712E+04    0.38145E-03   -0.97640E-03  5376   0.869E-02    0.881E-02
RMM:   4    -0.141351624256E+04    0.44558E-04   -0.14115E-03  5458   0.317E-02    0.202E-02
RMM:   5    -0.141351622504E+04    0.17520E-04   -0.10600E-04  4617   0.859E-03    0.108E-02
RMM:   6    -0.141351622634E+04   -0.13027E-05   -0.40086E-05  3603   0.485E-03
  23 F= -.14135162E+04 E0= -.14135266E+04  d E =-.473949E-01
 ZBRENT: can't locate minimum, use default step
 trial-energy change:   -0.047395  1 .order   -0.045509   -0.048164   -0.042853
 step:   0.8826(harm=  2.0011)  dis= 0.03623  next Energy= -1413.687225 (dE=-0.218E+00)
 bond charge predicted
       N       E                     dE             d eps       ncg     rms          rms(c)
DAV:   1    -0.141355277588E+04   -0.36551E-01   -0.19429E+01  5024   0.381E+00    0.114E+00
RMM:   2    -0.141362188983E+04   -0.69114E-01   -0.10943E+00  4982   0.976E-01    0.654E-01
RMM:   3    -0.141361796964E+04    0.39202E-02   -0.87726E-02  5346   0.261E-01    0.264E-01
RMM:   4    -0.141361750306E+04    0.46658E-03   -0.12825E-02  5453   0.967E-02    0.610E-02
RMM:   5    -0.141361742942E+04    0.73638E-04   -0.10218E-03  5317   0.259E-02    0.360E-02
RMM:   6    -0.141361746985E+04   -0.40423E-04   -0.36584E-04  5157   0.129E-02    0.270E-02
RMM:   7    -0.141361744018E+04    0.29669E-04   -0.67677E-05  3952   0.518E-03    0.116E-02
RMM:   8    -0.141361748689E+04   -0.46714E-04   -0.24841E-05  3287   0.366E-03    0.489E-03
RMM:   9    -0.141361753826E+04   -0.51369E-04   -0.81428E-06  3066   0.230E-03    0.285E-03
RMM:  10    -0.141361760576E+04   -0.67500E-04   -0.87391E-06  2955   0.184E-03    0.198E-03
RMM:  11    -0.141361767629E+04   -0.70532E-04   -0.10448E-05  2589   0.162E-03    0.975E-04
RMM:  12    -0.141361770315E+04   -0.26855E-04   -0.30268E-06  1953   0.113E-03    0.645E-04
RMM:  13    -0.141361772502E+04   -0.21873E-04   -0.25365E-06  1841   0.106E-03    0.413E-04
RMM:  14    -0.141361773633E+04   -0.11315E-04   -0.12455E-06  1564   0.914E-04    0.250E-04
RMM:  15    -0.141361774793E+04   -0.11592E-04   -0.11622E-06  1479   0.891E-04    0.152E-04
RMM:  16    -0.141361775090E+04   -0.29734E-05   -0.39443E-07  1282   0.806E-04
  24 F= -.14136178E+04 E0= -.14136254E+04  d E =-.148919E+00
 curvature: -21.66 expect dE=-0.398E+01 dE for cont linesearch -0.346E-01
 ZBRENT: increasing intervall
 opt :   2.2066  next Energy= -1413.656350 (dE=-0.188E+00)
 bond charge predicted
       N       E                     dE             d eps       ncg     rms          rms(c)
DAV:   1    -0.141331393260E+04    0.30382E+00   -0.78355E+01  5024   0.767E+00    0.226E+00
RMM:   2    -0.141360509315E+04   -0.29116E+00   -0.44998E+00  4984   0.199E+00    0.131E+00
RMM:   3    -0.141358752735E+04    0.17566E-01   -0.35187E-01  5268   0.523E-01    0.530E-01
RMM:   4    -0.141358602563E+04    0.15017E-02   -0.55094E-02  5463   0.203E-01    0.124E-01
RMM:   5    -0.141358565826E+04    0.36737E-03   -0.42410E-03  5184   0.528E-02    0.587E-02
RMM:   6    -0.141358577970E+04   -0.12144E-03   -0.13033E-03  5525   0.260E-02    0.295E-02
RMM:   7    -0.141358589165E+04   -0.11195E-03   -0.18660E-04  4780   0.955E-03    0.140E-02
RMM:   8    -0.141358600410E+04   -0.11245E-03   -0.45836E-05  3616   0.484E-03    0.110E-02
RMM:   9    -0.141358608056E+04   -0.76461E-04   -0.13900E-05  3141   0.276E-03    0.568E-03
RMM:  10    -0.141358624396E+04   -0.16340E-03   -0.30806E-05  3389   0.307E-03    0.449E-03
RMM:  11    -0.141358640740E+04   -0.16343E-03   -0.24781E-05  3232   0.253E-03    0.208E-03
RMM:  12    -0.141358652474E+04   -0.11734E-03   -0.17169E-05  2648   0.184E-03    0.121E-03
RMM:  13    -0.141358658068E+04   -0.55948E-04   -0.70810E-06  2109   0.132E-03    0.639E-04
RMM:  14    -0.141358660986E+04   -0.29173E-04   -0.26391E-06  1763   0.106E-03    0.451E-04
RMM:  15    -0.141358662940E+04   -0.19537E-04   -0.18659E-06  1704   0.985E-04    0.286E-04
RMM:  16    -0.141358663985E+04   -0.10457E-04   -0.91872E-07  1473   0.868E-04    0.169E-04
RMM:  17    -0.141358664578E+04   -0.59310E-05   -0.49844E-07  1348   0.815E-04
  25 F= -.14135866E+04 E0= -.14135876E+04  d E =-.117814E+00
 curvature: -24.15 expect dE=-0.724E+01 dE for cont linesearch -0.147E+00
 ZBRENT: bracketing found
 ZBRENT: interpolating
 opt :   1.3314  next Energy= -1413.642808 (dE=-0.174E+00)
 bond charge predicted
       N       E                     dE             d eps       ncg     rms          rms(c)
DAV:   1    -0.141352942278E+04    0.57217E-01   -0.34497E+01  5024   0.514E+00    0.150E+00
RMM:   2    -0.141366161155E+04   -0.13219E+00   -0.20465E+00  4990   0.132E+00    0.866E-01
RMM:   3    -0.141365426506E+04    0.73465E-02   -0.15847E-01  5379   0.352E-01    0.367E-01
RMM:   4    -0.141365313244E+04    0.11326E-02   -0.24357E-02  5449   0.130E-01    0.909E-02
RMM:   5    -0.141365278065E+04    0.35179E-03   -0.18682E-03  5265   0.355E-02    0.473E-02
RMM:   6    -0.141365285130E+04   -0.70653E-04   -0.78691E-04  5175   0.190E-02    0.194E-02
RMM:   7    -0.141365293354E+04   -0.82233E-04   -0.65089E-05  3989   0.650E-03    0.834E-03
RMM:   8    -0.141365304384E+04   -0.11030E-03   -0.32712E-05  3356   0.418E-03    0.438E-03
RMM:   9    -0.141365310562E+04   -0.61782E-04   -0.93862E-06  3074   0.230E-03    0.358E-03
RMM:  10    -0.141365316803E+04   -0.62410E-04   -0.84010E-06  2949   0.188E-03    0.282E-03
RMM:  11    -0.141365326838E+04   -0.10035E-03   -0.16143E-05  2956   0.197E-03    0.133E-03
RMM:  12    -0.141365332350E+04   -0.55124E-04   -0.79897E-06  2293   0.145E-03    0.877E-04
RMM:  13    -0.141365335389E+04   -0.30393E-04   -0.41402E-06  1934   0.116E-03    0.447E-04
RMM:  14    -0.141365336444E+04   -0.10550E-04   -0.11680E-06  1557   0.916E-04    0.335E-04
RMM:  15    -0.141365337858E+04   -0.14135E-04   -0.14963E-06  1671   0.929E-04    0.187E-04
RMM:  16    -0.141365338520E+04   -0.66220E-05   -0.73554E-07  1416   0.817E-04
  26 F= -.14136534E+04 E0= -.14136590E+04  d E =-.184554E+00
 curvature:  -4.12 expect dE=-0.811E+00 dE for cont linesearch -0.729E-03
 trial: gam= 0.15166 g(F)=  0.197E+00 g(S)=  0.000E+00 ort = 0.372E-01 (trialstep = 0.443E+00)
 search vector abs. value=  0.388E+00
 bond charge predicted
       N       E                     dE             d eps       ncg     rms          rms(c)
DAV:   1    -0.141373609966E+04   -0.82721E-01   -0.48526E-01  5176   0.640E-01    0.181E-01
RMM:   2    -0.141373842794E+04   -0.23283E-02   -0.34124E-02  4984   0.176E-01    0.109E-01
RMM:   3    -0.141373831234E+04    0.11560E-03   -0.23127E-03  5249   0.444E-02    0.507E-02
RMM:   4    -0.141373831062E+04    0.17195E-05   -0.51775E-04  5287   0.195E-02    0.109E-02
RMM:   5    -0.141373830737E+04    0.32531E-05   -0.38339E-05  3341   0.531E-03
  27 F= -.14137383E+04 E0= -.14137428E+04  d E =-.849222E-01
 ZBRENT: can't locate minimum, use default step
 trial-energy change:   -0.084922  1 .order   -0.084544   -0.089660   -0.079427
 step:   1.7712(harm=  3.8796)  dis= 0.01605  next Energy= -1413.908314 (dE=-0.255E+00)
 bond charge predicted
       N       E                     dE             d eps       ncg     rms          rms(c)
DAV:   1    -0.141391163480E+04   -0.17332E+00   -0.43737E+00  5088   0.192E+00    0.544E-01
RMM:   2    -0.141393263138E+04   -0.20997E-01   -0.30648E-01  4982   0.529E-01    0.328E-01
RMM:   3    -0.141393145693E+04    0.11745E-02   -0.20822E-02  5246   0.133E-01    0.152E-01
RMM:   4    -0.141393138068E+04    0.76247E-04   -0.47671E-03  5358   0.585E-02    0.331E-02
RMM:   5    -0.141393135153E+04    0.29149E-04   -0.31235E-04  5069   0.150E-02    0.182E-02
RMM:   6    -0.141393137397E+04   -0.22442E-04   -0.15169E-04  4993   0.851E-03    0.107E-02
RMM:   7    -0.141393137906E+04   -0.50932E-05   -0.14935E-05  3164   0.298E-03
  28 F= -.14139314E+04 E0= -.14139327E+04  d E =-.277994E+00
 curvature:  -2.32 expect dE=-0.257E+00 dE for cont linesearch -0.697E-01
 ZBRENT: increasing intervall
 opt :   4.4280  next Energy= -1414.028537 (dE=-0.375E+00)
 bond charge predicted
       N       E                     dE             d eps       ncg     rms          rms(c)
DAV:   1    -0.141395984520E+04   -0.28471E-01   -0.17384E+01  5040   0.384E+00    0.109E+00
RMM:   2    -0.141404291883E+04   -0.83074E-01   -0.12133E+00  4979   0.105E+00    0.655E-01
RMM:   3    -0.141403782429E+04    0.50945E-02   -0.82659E-02  5227   0.266E-01    0.302E-01
RMM:   4    -0.141403747528E+04    0.34900E-03   -0.19401E-02  5365   0.118E-01    0.674E-02
RMM:   5    -0.141403745341E+04    0.21872E-04   -0.13415E-03  5135   0.304E-02    0.468E-02
RMM:   6    -0.141403744806E+04    0.53482E-05   -0.56333E-04  5218   0.161E-02    0.315E-02
RMM:   7    -0.141403744124E+04    0.68228E-05   -0.12163E-04  4616   0.668E-03    0.122E-02
RMM:   8    -0.141403749439E+04   -0.53151E-04   -0.26076E-05  3328   0.395E-03    0.604E-03
RMM:   9    -0.141403759040E+04   -0.96005E-04   -0.19753E-05  3173   0.296E-03    0.339E-03
RMM:  10    -0.141403766644E+04   -0.76041E-04   -0.92052E-06  3088   0.210E-03    0.224E-03
RMM:  11    -0.141403777322E+04   -0.10679E-03   -0.17426E-05  2985   0.196E-03    0.130E-03
RMM:  12    -0.141403780762E+04   -0.34394E-04   -0.43149E-06  2023   0.121E-03    0.800E-04
RMM:  13    -0.141403783648E+04   -0.28864E-04   -0.34333E-06  2009   0.114E-03    0.598E-04
RMM:  14    -0.141403785289E+04   -0.16410E-04   -0.16847E-06  1609   0.961E-04    0.319E-04
RMM:  15    -0.141403786384E+04   -0.10947E-04   -0.10144E-06  1464   0.877E-04    0.195E-04
RMM:  16    -0.141403787109E+04   -0.72508E-05   -0.79616E-07  1409   0.851E-04
  29 F= -.14140379E+04 E0= -.14140341E+04  d E =-.384486E+00
 curvature:  -3.23 expect dE=-0.113E+01 dE for cont linesearch -0.706E-02
 trial: gam= 1.91601 g(F)=  0.350E+00 g(S)=  0.000E+00 ort =-0.291E-01 (trialstep = 0.289E+00)
 search vector abs. value=  0.166E+01
 bond charge predicted
       N       E                     dE             d eps       ncg     rms          rms(c)
DAV:   1    -0.141411680228E+04   -0.78938E-01   -0.77121E-01  5224   0.795E-01    0.234E-01
RMM:   2    -0.141411956212E+04   -0.27598E-02   -0.45123E-02  4986   0.202E-01    0.136E-01
RMM:   3    -0.141411941103E+04    0.15110E-03   -0.36337E-03  5337   0.535E-02    0.563E-02
RMM:   4    -0.141411940136E+04    0.96608E-05   -0.55624E-04  5383   0.210E-02    0.123E-02
RMM:   5    -0.141411939864E+04    0.27242E-05   -0.43263E-05  3546   0.575E-03
  30 F= -.14141194E+04 E0= -.14141153E+04  d E =-.815276E-01
 ZBRENT: can't locate minimum, use default step
 trial-energy change:   -0.081528  1 .order   -0.080964   -0.085214   -0.076714
 step:   1.1567(harm=  2.8992)  dis= 0.02207  next Energy= -1414.465024 (dE=-0.427E+00)
 bond charge predicted
       N       E                     dE             d eps       ncg     rms          rms(c)
DAV:   1    -0.141428244499E+04   -0.16304E+00   -0.69315E+00  4992   0.238E+00    0.705E-01
RMM:   2    -0.141430713872E+04   -0.24694E-01   -0.40497E-01  4984   0.608E-01    0.410E-01
RMM:   3    -0.141430557889E+04    0.15598E-02   -0.32560E-02  5319   0.161E-01    0.169E-01
RMM:   4    -0.141430550531E+04    0.73584E-04   -0.51758E-03  5413   0.635E-02    0.398E-02
RMM:   5    -0.141430562362E+04   -0.11831E-03   -0.51870E-04  5333   0.172E-02    0.394E-02
RMM:   6    -0.141430548566E+04    0.13796E-03   -0.17485E-04  4922   0.888E-03    0.127E-02
RMM:   7    -0.141430551190E+04   -0.26240E-04   -0.20220E-05  3228   0.356E-03    0.538E-03
RMM:   8    -0.141430553672E+04   -0.24826E-04   -0.75738E-06  3034   0.240E-03    0.278E-03
RMM:   9    -0.141430556145E+04   -0.24728E-04   -0.35847E-06  2809   0.161E-03    0.173E-03
RMM:  10    -0.141430559744E+04   -0.35996E-04   -0.41651E-06  2404   0.137E-03    0.103E-03
RMM:  11    -0.141430562846E+04   -0.31018E-04   -0.40961E-06  2199   0.124E-03    0.619E-04
RMM:  12    -0.141430565087E+04   -0.22405E-04   -0.33477E-06  1969   0.111E-03    0.324E-04
RMM:  13    -0.141430565779E+04   -0.69218E-05   -0.95350E-07  1463   0.863E-04
  31 F= -.14143057E+04 E0= -.14143010E+04  d E =-.267787E+00
 curvature:  -4.53 expect dE=-0.116E+01 dE for cont linesearch -0.722E-01
 ZBRENT: increasing intervall
 opt :   2.8918  next Energy= -1414.410076 (dE=-0.372E+00)
 bond charge predicted
       N       E                     dE             d eps       ncg     rms          rms(c)
DAV:   1    -0.141432175990E+04   -0.16109E-01   -0.27796E+01  4992   0.477E+00    0.142E+00
RMM:   2    -0.141441911896E+04   -0.97359E-01   -0.16051E+00  4982   0.121E+00    0.823E-01
RMM:   3    -0.141441225119E+04    0.68678E-02   -0.12954E-01  5299   0.321E-01    0.337E-01
RMM:   4    -0.141441178521E+04    0.46599E-03   -0.21027E-02  5415   0.128E-01    0.745E-02
RMM:   5    -0.141441170042E+04    0.84784E-04   -0.18067E-03  5137   0.349E-02    0.287E-02
RMM:   6    -0.141441181118E+04   -0.11076E-03   -0.36872E-04  5489   0.153E-02    0.128E-02
RMM:   7    -0.141441185556E+04   -0.44374E-04   -0.41329E-05  3564   0.496E-03    0.106E-02
RMM:   8    -0.141441190414E+04   -0.48580E-04   -0.26907E-05  3239   0.382E-03    0.496E-03
RMM:   9    -0.141441196521E+04   -0.61076E-04   -0.82160E-06  3078   0.228E-03    0.281E-03
RMM:  10    -0.141441201746E+04   -0.52243E-04   -0.47775E-06  2741   0.155E-03    0.212E-03
RMM:  11    -0.141441209917E+04   -0.81717E-04   -0.10646E-05  2751   0.164E-03    0.124E-03
RMM:  12    -0.141441215050E+04   -0.51323E-04   -0.66357E-06  2138   0.132E-03    0.814E-04
RMM:  13    -0.141441218175E+04   -0.31252E-04   -0.43251E-06  2048   0.115E-03    0.392E-04
RMM:  14    -0.141441219158E+04   -0.98301E-05   -0.96405E-07  1453   0.854E-04
  32 F= -.14144122E+04 E0= -.14144091E+04  d E =-.374320E+00
 curvature:  -6.55 expect dE=-0.289E+01 dE for cont linesearch -0.632E-02
 trial: gam= 0.89724 g(F)=  0.442E+00 g(S)=  0.000E+00 ort =-0.400E-01 (trialstep = 0.788E+00)
 search vector abs. value=  0.171E+01
 bond charge predicted
       N       E                     dE             d eps       ncg     rms          rms(c)
DAV:   1    -0.141467846653E+04   -0.26628E+00   -0.54318E+00  5036   0.210E+00    0.626E-01
RMM:   2    -0.141469561188E+04   -0.17145E-01   -0.28689E-01  4989   0.510E-01    0.367E-01
RMM:   3    -0.141469462321E+04    0.98867E-03   -0.25175E-02  5416   0.137E-01    0.148E-01
RMM:   4    -0.141469460243E+04    0.20773E-04   -0.38487E-03  5455   0.528E-02    0.384E-02
RMM:   5    -0.141469449652E+04    0.10592E-03   -0.34462E-04  5177   0.149E-02    0.224E-02
RMM:   6    -0.141469448541E+04    0.11107E-04   -0.14675E-04  4947   0.866E-03    0.784E-03
RMM:   7    -0.141469449471E+04   -0.92999E-05   -0.96564E-06  3049   0.286E-03
  33 F= -.14146945E+04 E0= -.14146925E+04  d E =-.282303E+00
 ZBRENT: can't locate minimum, use default step
 trial-energy change:   -0.282303  1 .order   -0.282717   -0.319723   -0.245710
 step:   3.1519(harm=  3.4040)  dis= 0.06684  next Energy= -1415.102766 (dE=-0.691E+00)
 bond charge predicted
       N       E                     dE             d eps       ncg     rms          rms(c)
DAV:   1    -0.141497469896E+04   -0.28021E+00   -0.48861E+01  4944   0.630E+00    0.189E+00
RMM:   2    -0.141513004059E+04   -0.15534E+00   -0.25609E+00  4989   0.153E+00    0.111E+00
RMM:   3    -0.141511958202E+04    0.10459E-01   -0.22722E-01  5405   0.412E-01    0.444E-01
RMM:   4    -0.141511960434E+04   -0.22319E-04   -0.36609E-02  5504   0.160E-01    0.135E-01
RMM:   5    -0.141511807584E+04    0.15285E-02   -0.37880E-03  5308   0.462E-02    0.886E-02
RMM:   6    -0.141511804999E+04    0.25856E-04   -0.14927E-03  5278   0.239E-02    0.671E-02
RMM:   7    -0.141511770029E+04    0.34970E-03   -0.51479E-04  4998   0.135E-02    0.200E-02
RMM:   8    -0.141511778090E+04   -0.80609E-04   -0.73028E-05  4218   0.612E-03    0.859E-03
RMM:   9    -0.141511788876E+04   -0.10786E-03   -0.28326E-05  3256   0.373E-03    0.422E-03
RMM:  10    -0.141511796657E+04   -0.77809E-04   -0.92158E-06  3087   0.227E-03    0.269E-03
RMM:  11    -0.141511805883E+04   -0.92255E-04   -0.11313E-05  3115   0.188E-03    0.193E-03
RMM:  12    -0.141511811417E+04   -0.55344E-04   -0.53208E-06  2137   0.130E-03    0.132E-03
RMM:  13    -0.141511817594E+04   -0.61770E-04   -0.10283E-05  2910   0.163E-03    0.109E-03
RMM:  14    -0.141511819598E+04   -0.20045E-04   -0.17109E-06  1553   0.908E-04    0.493E-04
RMM:  15    -0.141511821495E+04   -0.18962E-04   -0.20075E-06  1728   0.101E-03    0.445E-04
RMM:  16    -0.141511822478E+04   -0.98317E-05   -0.70673E-07  1314   0.834E-04
  34 F= -.14151182E+04 E0= -.14151205E+04  d E =-.706033E+00
 curvature:  -7.10 expect dE=-0.242E+01 dE for cont linesearch -0.701E-02
 trial: gam= 0.60307 g(F)=  0.341E+00 g(S)=  0.000E+00 ort = 0.411E-01 (trialstep = 0.126E+01)
 search vector abs. value=  0.101E+01
 bond charge predicted
       N       E                     dE             d eps       ncg     rms          rms(c)
DAV:   1    -0.141545340414E+04   -0.33519E+00   -0.89917E+00  5088   0.268E+00    0.757E-01
RMM:   2    -0.141549337657E+04   -0.39972E-01   -0.57141E-01  4982   0.717E-01    0.457E-01
RMM:   3    -0.141549109394E+04    0.22826E-02   -0.41698E-02  5244   0.184E-01    0.203E-01
RMM:   4    -0.141549092472E+04    0.16922E-03   -0.86806E-03  5355   0.785E-02    0.465E-02
RMM:   5    -0.141549082945E+04    0.95278E-04   -0.68076E-04  5198   0.211E-02    0.264E-02
RMM:   6    -0.141549080100E+04    0.28450E-04   -0.29426E-04  5061   0.117E-02    0.120E-02
RMM:   7    -0.141549081444E+04   -0.13447E-04   -0.21172E-05  3279   0.384E-03    0.920E-03
RMM:   8    -0.141549081519E+04   -0.74582E-06   -0.67537E-06  3019   0.242E-03
  35 F= -.14154908E+04 E0= -.14154948E+04  d E =-.372590E+00
 trial-energy change:   -0.372590  1 .order   -0.372081   -0.461778   -0.282383
 step:   3.2454(harm=  3.2454)  dis= 0.06301  next Energy= -1415.712555 (dE=-0.594E+00)
 bond charge predicted
       N       E                     dE             d eps       ncg     rms          rms(c)
DAV:   1    -0.141560847568E+04   -0.11766E+00   -0.22214E+01  5048   0.422E+00    0.119E+00
RMM:   2    -0.141570958529E+04   -0.10111E+00   -0.14070E+00  4982   0.113E+00    0.723E-01
RMM:   3    -0.141570345574E+04    0.61295E-02   -0.10237E-01  5238   0.289E-01    0.318E-01
RMM:   4    -0.141570298278E+04    0.47296E-03   -0.21288E-02  5375   0.123E-01    0.761E-02
RMM:   5    -0.141570269686E+04    0.28592E-03   -0.16844E-03  5203   0.328E-02    0.464E-02
RMM:   6    -0.141570265283E+04    0.44029E-04   -0.85161E-04  5090   0.193E-02    0.265E-02
RMM:   7    -0.141570264531E+04    0.75177E-05   -0.10219E-04  4415   0.655E-03    0.168E-02
RMM:   8    -0.141570266450E+04   -0.19190E-04   -0.36765E-05  3607   0.433E-03    0.747E-03
RMM:   9    -0.141570274208E+04   -0.77575E-04   -0.20905E-05  3170   0.326E-03    0.381E-03
RMM:  10    -0.141570281016E+04   -0.68084E-04   -0.10239E-05  3091   0.230E-03    0.254E-03
RMM:  11    -0.141570290684E+04   -0.96677E-04   -0.14217E-05  3112   0.197E-03    0.166E-03
RMM:  12    -0.141570294191E+04   -0.35067E-04   -0.44594E-06  2295   0.134E-03    0.965E-04
RMM:  13    -0.141570297079E+04   -0.28882E-04   -0.28292E-06  2030   0.115E-03    0.786E-04
RMM:  14    -0.141570298780E+04   -0.17010E-04   -0.14226E-06  1553   0.947E-04    0.363E-04
RMM:  15    -0.141570300099E+04   -0.13195E-04   -0.12736E-06  1608   0.921E-04    0.303E-04
RMM:  16    -0.141570300966E+04   -0.86647E-05   -0.73088E-07  1391   0.832E-04
  36 F= -.14157030E+04 E0= -.14157105E+04  d E =-.584785E+00
 curvature:  -4.48 expect dE=-0.148E+01 dE for cont linesearch -0.473E-03
 trial: gam= 1.14330 g(F)=  0.331E+00 g(S)=  0.000E+00 ort =-0.103E-01 (trialstep = 0.103E+01)
 search vector abs. value=  0.163E+01
 bond charge predicted
       N       E                     dE             d eps       ncg     rms          rms(c)
DAV:   1    -0.141594792828E+04   -0.24493E+00   -0.78839E+00  5088   0.246E+00    0.728E-01
RMM:   2    -0.141597806039E+04   -0.30132E-01   -0.45719E-01  4984   0.618E-01    0.423E-01
RMM:   3    -0.141597641533E+04    0.16451E-02   -0.37867E-02  5320   0.165E-01    0.174E-01
RMM:   4    -0.141597624764E+04    0.16769E-03   -0.61200E-03  5442   0.661E-02    0.453E-02
RMM:   5    -0.141597614678E+04    0.10086E-03   -0.49907E-04  5181   0.177E-02    0.265E-02
RMM:   6    -0.141597612381E+04    0.22975E-04   -0.22355E-04  4992   0.102E-02    0.105E-02
RMM:   7    -0.141597613872E+04   -0.14918E-04   -0.14892E-05  3125   0.345E-03    0.532E-03
RMM:   8    -0.141597616031E+04   -0.21585E-04   -0.79769E-06  3018   0.231E-03    0.444E-03
RMM:   9    -0.141597617861E+04   -0.18303E-04   -0.39497E-06  2848   0.163E-03    0.241E-03
RMM:  10    -0.141597622386E+04   -0.45247E-04   -0.99534E-06  3056   0.182E-03    0.213E-03
RMM:  11    -0.141597624618E+04   -0.22319E-04   -0.22340E-06  1919   0.111E-03    0.886E-04
RMM:  12    -0.141597627225E+04   -0.26073E-04   -0.41499E-06  2327   0.126E-03    0.690E-04
RMM:  13    -0.141597628434E+04   -0.12092E-04   -0.90660E-07  1386   0.855E-04    0.351E-04
RMM:  14    -0.141597629229E+04   -0.79473E-05   -0.67670E-07  1374   0.835E-04
  37 F= -.14159763E+04 E0= -.14159884E+04  d E =-.273283E+00
 trial-energy change:   -0.273283  1 .order   -0.270927   -0.328204   -0.213651
 step:   2.5057(harm=  2.9491)  dis= 0.08210  next Energy= -1416.136468 (dE=-0.433E+00)
 bond charge predicted
       N       E                     dE             d eps       ncg     rms          rms(c)
DAV:   1    -0.141608212170E+04   -0.10584E+00   -0.16218E+01  5052   0.353E+00    0.104E+00
RMM:   2    -0.141614666622E+04   -0.64545E-01   -0.94328E-01  4984   0.888E-01    0.608E-01
RMM:   3    -0.141614308491E+04    0.35813E-02   -0.75587E-02  5303   0.236E-01    0.254E-01
RMM:   4    -0.141614275073E+04    0.33418E-03   -0.13458E-02  5491   0.960E-02    0.712E-02
RMM:   5    -0.141614234207E+04    0.40866E-03   -0.10851E-03  5161   0.256E-02    0.410E-02
RMM:   6    -0.141614231348E+04    0.28590E-04   -0.57258E-04  5010   0.160E-02    0.154E-02
RMM:   7    -0.141614234296E+04   -0.29483E-04   -0.34043E-05  3398   0.519E-03    0.779E-03
RMM:   8    -0.141614241412E+04   -0.71163E-04   -0.33970E-05  3522   0.404E-03    0.556E-03
RMM:   9    -0.141614243743E+04   -0.23309E-04   -0.46238E-06  3012   0.202E-03    0.404E-03
RMM:  10    -0.141614252514E+04   -0.87711E-04   -0.34626E-05  3573   0.320E-03    0.483E-03
RMM:  11    -0.141614257171E+04   -0.46568E-04   -0.85668E-06  3058   0.195E-03    0.158E-03
RMM:  12    -0.141614262148E+04   -0.49772E-04   -0.67710E-06  2577   0.149E-03    0.885E-04
RMM:  13    -0.141614265296E+04   -0.31473E-04   -0.26417E-06  1834   0.108E-03    0.576E-04
RMM:  14    -0.141614266656E+04   -0.13604E-04   -0.83885E-07  1402   0.883E-04    0.390E-04
RMM:  15    -0.141614268148E+04   -0.14922E-04   -0.12044E-06  1579   0.913E-04    0.197E-04
RMM:  16    -0.141614268921E+04   -0.77297E-05   -0.61871E-07  1372   0.830E-04
  38 F= -.14161427E+04 E0= -.14161588E+04  d E =-.439680E+00
 curvature:  -7.14 expect dE=-0.202E+01 dE for cont linesearch -0.749E-03
 trial: gam= 0.50093 g(F)=  0.283E+00 g(S)=  0.000E+00 ort = 0.131E-01 (trialstep = 0.132E+01)
 search vector abs. value=  0.705E+00
 bond charge predicted
       N       E                     dE             d eps       ncg     rms          rms(c)
DAV:   1    -0.141642083190E+04   -0.27815E+00   -0.67750E+00  5168   0.231E+00    0.629E-01
RMM:   2    -0.141645400103E+04   -0.33169E-01   -0.44667E-01  4989   0.630E-01    0.376E-01
RMM:   3    -0.141645245301E+04    0.15480E-02   -0.30088E-02  5146   0.160E-01    0.171E-01
RMM:   4    -0.141645267742E+04   -0.22441E-03   -0.76789E-03  5502   0.702E-02    0.603E-02
RMM:   5    -0.141645232319E+04    0.35424E-03   -0.64345E-04  5033   0.192E-02    0.290E-02
RMM:   6    -0.141645233912E+04   -0.15932E-04   -0.41716E-04  5071   0.132E-02    0.116E-02
RMM:   7    -0.141645234452E+04   -0.54036E-05   -0.27637E-05  3262   0.448E-03
  39 F= -.14164523E+04 E0= -.14164703E+04  d E =-.309655E+00
 trial-energy change:   -0.309655  1 .order   -0.309866   -0.382943   -0.236789
 step:   3.4706(harm=  3.4706)  dis= 0.10845  next Energy= -1416.644371 (dE=-0.502E+00)
 bond charge predicted
       N       E                     dE             d eps       ncg     rms          rms(c)
DAV:   1    -0.141655277628E+04   -0.10044E+00   -0.17785E+01  5076   0.374E+00    0.101E+00
RMM:   2    -0.141664113946E+04   -0.88363E-01   -0.11760E+00  4985   0.102E+00    0.609E-01
RMM:   3    -0.141663683403E+04    0.43054E-02   -0.78419E-02  5148   0.259E-01    0.279E-01
RMM:   4    -0.141663728520E+04   -0.45117E-03   -0.20066E-02  5474   0.114E-01    0.975E-02
RMM:   5    -0.141663646224E+04    0.82296E-03   -0.16437E-03  5066   0.310E-02    0.519E-02
RMM:   6    -0.141663652971E+04   -0.67470E-04   -0.77927E-04  5197   0.180E-02    0.365E-02
RMM:   7    -0.141663646906E+04    0.60645E-04   -0.19408E-04  4955   0.830E-03    0.149E-02
RMM:   8    -0.141663651629E+04   -0.47231E-04   -0.68112E-05  4221   0.536E-03    0.733E-03
RMM:   9    -0.141663660114E+04   -0.84850E-04   -0.15107E-05  3137   0.289E-03    0.404E-03
RMM:  10    -0.141663667667E+04   -0.75529E-04   -0.10742E-05  3082   0.214E-03    0.270E-03
RMM:  11    -0.141663679763E+04   -0.12096E-03   -0.18332E-05  3038   0.202E-03    0.155E-03
RMM:  12    -0.141663682546E+04   -0.27829E-04   -0.27026E-06  1963   0.113E-03    0.857E-04
RMM:  13    -0.141663686539E+04   -0.39934E-04   -0.47686E-06  2389   0.124E-03    0.652E-04
RMM:  14    -0.141663687242E+04   -0.70265E-05   -0.44909E-07  1320   0.792E-04
  40 F= -.14166369E+04 E0= -.14166569E+04  d E =-.494183E+00
 curvature:  -4.23 expect dE=-0.150E+01 dE for cont linesearch -0.269E-03
 trial: gam= 1.23587 g(F)=  0.354E+00 g(S)=  0.000E+00 ort =-0.669E-02 (trialstep = 0.874E+00)
 search vector abs. value=  0.141E+01
 bond charge predicted
       N       E                     dE             d eps       ncg     rms          rms(c)
DAV:   1    -0.141685145946E+04   -0.21459E+00   -0.58530E+00  5084   0.216E+00    0.584E-01
RMM:   2    -0.141688092093E+04   -0.29461E-01   -0.37899E-01  4987   0.575E-01    0.352E-01
RMM:   3    -0.141687989969E+04    0.10212E-02   -0.25399E-02  5246   0.147E-01    0.163E-01
RMM:   4    -0.141687992581E+04   -0.26122E-04   -0.58832E-03  5404   0.635E-02    0.468E-02
RMM:   5    -0.141687971435E+04    0.21146E-03   -0.41175E-04  5071   0.167E-02    0.251E-02
RMM:   6    -0.141687971225E+04    0.20953E-05   -0.29563E-04  5002   0.111E-02    0.104E-02
RMM:   7    -0.141687971816E+04   -0.59031E-05   -0.16956E-05  3093   0.370E-03
  41 F= -.14168797E+04 E0= -.14168998E+04  d E =-.242846E+00
 trial-energy change:   -0.242846  1 .order   -0.243931   -0.302067   -0.185796
 step:   2.5435(harm=  2.2715)  dis= 0.12128  next Energy= -1417.049520 (dE=-0.413E+00)
 bond charge predicted
       N       E                     dE             d eps       ncg     rms          rms(c)
DAV:   1    -0.141692173713E+04   -0.42025E-01   -0.21256E+01  4976   0.411E+00    0.111E+00
RMM:   2    -0.141702928795E+04   -0.10755E+00   -0.13787E+00  4986   0.110E+00    0.673E-01
RMM:   3    -0.141702496466E+04    0.43233E-02   -0.92346E-02  5260   0.281E-01    0.308E-01
RMM:   4    -0.141702487784E+04    0.86818E-04   -0.20641E-02  5388   0.119E-01    0.859E-02
RMM:   5    -0.141702426207E+04    0.61577E-03   -0.14217E-03  5136   0.313E-02    0.480E-02
RMM:   6    -0.141702428736E+04   -0.25290E-04   -0.10091E-03  5063   0.204E-02    0.241E-02
RMM:   7    -0.141702429123E+04   -0.38725E-05   -0.79444E-05  4142   0.632E-03
  42 F= -.14170243E+04 E0= -.14170443E+04  d E =-.387419E+00
 curvature:  -4.47 expect dE=-0.942E+00 dE for cont linesearch -0.535E-02
 trial: gam= 0.55085 g(F)=  0.211E+00 g(S)=  0.000E+00 ort =-0.411E-01 (trialstep = 0.121E+01)
 search vector abs. value=  0.594E+00
 bond charge predicted
       N       E                     dE             d eps       ncg     rms          rms(c)
DAV:   1    -0.141715265607E+04   -0.12837E+00   -0.50237E+00  5152   0.205E+00    0.547E-01
RMM:   2    -0.141717888869E+04   -0.26233E-01   -0.33896E-01  4984   0.553E-01    0.340E-01
RMM:   3    -0.141717793547E+04    0.95323E-03   -0.23435E-02  5251   0.142E-01    0.161E-01
RMM:   4    -0.141717810966E+04   -0.17419E-03   -0.54318E-03  5419   0.602E-02    0.490E-02
RMM:   5    -0.141717790543E+04    0.20422E-03   -0.43942E-04  5105   0.167E-02    0.263E-02
RMM:   6    -0.141717797425E+04   -0.68818E-04   -0.24909E-04  5034   0.100E-02    0.165E-02
RMM:   7    -0.141717798724E+04   -0.12995E-04   -0.35561E-05  3529   0.392E-03    0.790E-03
RMM:   8    -0.141717803332E+04   -0.46079E-04   -0.13690E-05  3046   0.282E-03    0.435E-03
RMM:   9    -0.141717811121E+04   -0.77888E-04   -0.10019E-05  3080   0.219E-03    0.270E-03
RMM:  10    -0.141717817285E+04   -0.61641E-04   -0.55467E-06  2767   0.158E-03    0.188E-03
RMM:  11    -0.141717827007E+04   -0.97221E-04   -0.13381E-05  2896   0.172E-03    0.108E-03
RMM:  12    -0.141717828841E+04   -0.18337E-04   -0.15082E-06  1682   0.942E-04    0.588E-04
RMM:  13    -0.141717831529E+04   -0.26877E-04   -0.26059E-06  1922   0.106E-03    0.518E-04
RMM:  14    -0.141717832053E+04   -0.52407E-05   -0.37585E-07  1251   0.798E-04
  43 F= -.14171783E+04 E0= -.14171982E+04  d E =-.154029E+00
 trial-energy change:   -0.154029  1 .order   -0.155036   -0.227313   -0.082758
 step:   1.9498(harm=  1.8998)  dis= 0.05853  next Energy= -1417.203490 (dE=-0.179E+00)
 bond charge predicted
       N       E                     dE             d eps       ncg     rms          rms(c)
DAV:   1    -0.141719268260E+04   -0.14367E-01   -0.18899E+00  5088   0.126E+00    0.336E-01
RMM:   2    -0.141720240093E+04   -0.97183E-02   -0.12733E-01  4984   0.339E-01    0.208E-01
RMM:   3    -0.141720205476E+04    0.34617E-03   -0.88330E-03  5247   0.870E-02    0.976E-02
RMM:   4    -0.141720211185E+04   -0.57096E-04   -0.19751E-03  5400   0.367E-02    0.278E-02
RMM:   5    -0.141720204357E+04    0.68288E-04   -0.15582E-04  4902   0.101E-02    0.150E-02
RMM:   6    -0.141720205127E+04   -0.77036E-05   -0.10690E-04  4756   0.673E-03    0.580E-03
RMM:   7    -0.141720205481E+04   -0.35415E-05   -0.66414E-06  3010   0.245E-03
  44 F= -.14172021E+04 E0= -.14172218E+04  d E =-.177764E+00
 curvature:  -2.99 expect dE=-0.297E+00 dE for cont linesearch -0.673E-04
 trial: gam= 0.32488 g(F)=  0.994E-01 g(S)=  0.000E+00 ort =-0.366E-02 (trialstep = 0.136E+01)
 search vector abs. value=  0.160E+00
 bond charge predicted
       N       E                     dE             d eps       ncg     rms          rms(c)
DAV:   1    -0.141728223308E+04   -0.80182E-01   -0.21896E+00  5168   0.138E+00    0.367E-01
RMM:   2    -0.141729555489E+04   -0.13322E-01   -0.16713E-01  4992   0.394E-01    0.234E-01
RMM:   3    -0.141729503973E+04    0.51516E-03   -0.10234E-02  5250   0.995E-02    0.119E-01
RMM:   4    -0.141729507052E+04   -0.30790E-04   -0.31785E-03  5293   0.463E-02    0.282E-02
RMM:   5    -0.141729504298E+04    0.27540E-04   -0.20904E-04  5065   0.119E-02    0.200E-02
RMM:   6    -0.141729502607E+04    0.16907E-04   -0.14926E-04  4868   0.774E-03    0.921E-03
RMM:   7    -0.141729503139E+04   -0.53189E-05   -0.71000E-06  3012   0.263E-03
  45 F= -.14172950E+04 E0= -.14173140E+04  d E =-.929766E-01
 trial-energy change:   -0.092977  1 .order   -0.092651   -0.133190   -0.052113
 step:   2.1957(harm=  2.2284)  dis= 0.02298  next Energy= -1417.311228 (dE=-0.109E+00)
 bond charge predicted
       N       E                     dE             d eps       ncg     rms          rms(c)
DAV:   1    -0.141730703132E+04   -0.12005E-01   -0.83683E-01  5312   0.852E-01    0.227E-01
RMM:   2    -0.141731208977E+04   -0.50585E-02   -0.63691E-02  4993   0.243E-01    0.145E-01
RMM:   3    -0.141731192428E+04    0.16549E-03   -0.39120E-03  5259   0.614E-02    0.733E-02
RMM:   4    -0.141731194349E+04   -0.19207E-04   -0.11969E-03  5264   0.285E-02    0.163E-02
RMM:   5    -0.141731193219E+04    0.11296E-04   -0.94306E-05  4647   0.785E-03    0.757E-03
RMM:   6    -0.141731194316E+04   -0.10961E-04   -0.33428E-05  3425   0.427E-03    0.383E-03
RMM:   7    -0.141731194489E+04   -0.17384E-05   -0.39208E-06  3010   0.212E-03
  46 F= -.14173119E+04 E0= -.14173303E+04  d E =-.109890E+00
 curvature:  -1.81 expect dE=-0.657E-01 dE for cont linesearch -0.473E-04
 trial: gam= 0.36407 g(F)=  0.363E-01 g(S)=  0.000E+00 ort = 0.204E-02 (trialstep = 0.152E+01)
 search vector abs. value=  0.589E-01
 bond charge predicted
       N       E                     dE             d eps       ncg     rms          rms(c)
DAV:   1    -0.141734585337E+04   -0.33910E-01   -0.10908E+00  5040   0.953E-01    0.250E-01
RMM:   2    -0.141735165646E+04   -0.58031E-02   -0.73871E-02  4986   0.262E-01    0.161E-01
RMM:   3    -0.141735139520E+04    0.26126E-03   -0.48251E-03  5233   0.665E-02    0.782E-02
RMM:   4    -0.141735139073E+04    0.44657E-05   -0.12582E-03  5258   0.302E-02    0.157E-02
RMM:   5    -0.141735138634E+04    0.43947E-05   -0.10051E-04  4752   0.839E-03    0.881E-03
RMM:   6    -0.141735138896E+04   -0.26258E-05   -0.29361E-05  3356   0.420E-03
  47 F= -.14173514E+04 E0= -.14173701E+04  d E =-.394441E-01
 trial-energy change:   -0.039444  1 .order   -0.039390   -0.056446   -0.022333
 step:   2.5223(harm=  2.5223)  dis= 0.01817  next Energy= -1417.358645 (dE=-0.467E-01)
 bond charge predicted
       N       E                     dE             d eps       ncg     rms          rms(c)
DAV:   1    -0.141735598762E+04   -0.46013E-02   -0.46732E-01  5200   0.624E-01    0.164E-01
RMM:   2    -0.141735846233E+04   -0.24747E-02   -0.31714E-02  4993   0.171E-01    0.105E-01
RMM:   3    -0.141735836190E+04    0.10042E-03   -0.21120E-03  5250   0.437E-02    0.511E-02
RMM:   4    -0.141735837129E+04   -0.93832E-05   -0.52404E-04  5205   0.195E-02    0.124E-02
RMM:   5    -0.141735836677E+04    0.45218E-05   -0.41272E-05  3507   0.550E-03
  48 F= -.14173584E+04 E0= -.14173772E+04  d E =-.464219E-01
 curvature:  -2.01 expect dE=-0.680E-01 dE for cont linesearch -0.153E-04
 trial: gam= 0.98397 g(F)=  0.338E-01 g(S)=  0.000E+00 ort =-0.670E-03 (trialstep = 0.113E+01)
 search vector abs. value=  0.896E-01
 bond charge predicted
       N       E                     dE             d eps       ncg     rms          rms(c)
DAV:   1    -0.141738504496E+04   -0.26674E-01   -0.76160E-01  4988   0.793E-01    0.221E-01
RMM:   2    -0.141738830185E+04   -0.32569E-02   -0.43767E-02  4990   0.202E-01    0.135E-01
RMM:   3    -0.141738825363E+04    0.48220E-04   -0.33718E-03  5393   0.533E-02    0.591E-02
RMM:   4    -0.141738826162E+04   -0.79899E-05   -0.57763E-04  5336   0.208E-02    0.149E-02
RMM:   5    -0.141738824824E+04    0.13387E-04   -0.55304E-05  3715   0.597E-03    0.953E-03
RMM:   6    -0.141738824639E+04    0.18516E-05   -0.19985E-05  3177   0.369E-03
  49 F= -.14173882E+04 E0= -.14174063E+04  d E =-.298796E-01
 trial-energy change:   -0.029880  1 .order   -0.030026   -0.037640   -0.022413
 step:   3.1190(harm=  2.8035)  dis= 0.02815  next Energy= -1417.407073 (dE=-0.487E-01)
 bond charge predicted
       N       E                     dE             d eps       ncg     rms          rms(c)
DAV:   1    -0.141739212750E+04   -0.38793E-02   -0.23323E+00  4944   0.139E+00    0.384E-01
RMM:   2    -0.141740212199E+04   -0.99945E-02   -0.13361E-01  4988   0.353E-01    0.235E-01
RMM:   3    -0.141740192345E+04    0.19855E-03   -0.10326E-02  5397   0.934E-02    0.103E-01
RMM:   4    -0.141740191175E+04    0.11703E-04   -0.17613E-03  5361   0.364E-02    0.228E-02
RMM:   5    -0.141740187888E+04    0.32870E-04   -0.15290E-04  4942   0.101E-02    0.136E-02
RMM:   6    -0.141740187875E+04    0.12297E-06   -0.67017E-05  4362   0.578E-03
  50 F= -.14174019E+04 E0= -.14174187E+04  d E =-.435120E-01
 curvature:  -3.65 expect dE=-0.121E+00 dE for cont linesearch -0.979E-03
 trial: gam= 1.04301 g(F)=  0.332E-01 g(S)=  0.000E+00 ort =-0.490E-02 (trialstep = 0.114E+01)
 search vector abs. value=  0.120E+00
 bond charge predicted
       N       E                     dE             d eps       ncg     rms          rms(c)
DAV:   1    -0.141742162117E+04   -0.19742E-01   -0.98306E-01  5040   0.891E-01    0.262E-01
RMM:   2    -0.141742522428E+04   -0.36031E-02   -0.51841E-02  4982   0.224E-01    0.161E-01
RMM:   3    -0.141742498948E+04    0.23480E-03   -0.42910E-03  5287   0.607E-02    0.566E-02
RMM:   4    -0.141742500745E+04   -0.17974E-04   -0.61798E-04  5488   0.221E-02    0.156E-02
RMM:   5    -0.141742500704E+04    0.40991E-06   -0.61007E-05  3879   0.617E-03
  51 F= -.14174250E+04 E0= -.14174413E+04  d E =-.231283E-01
 trial-energy change:   -0.023128  1 .order   -0.023948   -0.032028   -0.015868
 step:   2.2566(harm=  2.2566)  dis= 0.01799  next Energy= -1417.433617 (dE=-0.317E-01)
 bond charge predicted
       N       E                     dE             d eps       ncg     rms          rms(c)
DAV:   1    -0.141742961462E+04   -0.46072E-02   -0.94961E-01  4984   0.876E-01    0.258E-01
RMM:   2    -0.141743312366E+04   -0.35090E-02   -0.50445E-02  4978   0.221E-01    0.159E-01
RMM:   3    -0.141743290185E+04    0.22181E-03   -0.41946E-03  5282   0.598E-02    0.564E-02
RMM:   4    -0.141743295368E+04   -0.51831E-04   -0.66001E-04  5557   0.220E-02    0.224E-02
RMM:   5    -0.141743290777E+04    0.45911E-04   -0.70871E-05  3986   0.624E-03    0.116E-02
RMM:   6    -0.141743290884E+04   -0.10735E-05   -0.39618E-05  3675   0.464E-03
  52 F= -.14174329E+04 E0= -.14174486E+04  d E =-.310301E-01
 curvature:  -4.83 expect dE=-0.117E+00 dE for cont linesearch -0.278E-04
 trial: gam= 0.46953 g(F)=  0.241E-01 g(S)=  0.000E+00 ort = 0.832E-03 (trialstep = 0.136E+01)
 search vector abs. value=  0.515E-01
 bond charge predicted
       N       E                     dE             d eps       ncg     rms          rms(c)
DAV:   1    -0.141745415377E+04   -0.21246E-01   -0.68097E-01  5072   0.754E-01    0.214E-01
RMM:   2    -0.141745737476E+04   -0.32210E-02   -0.42452E-02  4998   0.200E-01    0.136E-01
RMM:   3    -0.141745723837E+04    0.13639E-03   -0.30816E-03  5293   0.522E-02    0.569E-02
RMM:   4    -0.141745725250E+04   -0.14135E-04   -0.59155E-04  5296   0.213E-02    0.120E-02
RMM:   5    -0.141745725112E+04    0.13810E-05   -0.68217E-05  4232   0.655E-03
  53 F= -.14174573E+04 E0= -.14174733E+04  d E =-.243423E-01
 trial-energy change:   -0.024342  1 .order   -0.024983   -0.033406   -0.016561
 step:   2.7014(harm=  2.7014)  dis= 0.01120  next Energy= -1417.466032 (dE=-0.331E-01)
 bond charge predicted
       N       E                     dE             d eps       ncg     rms          rms(c)
DAV:   1    -0.141746248903E+04   -0.52365E-02   -0.65932E-01  4996   0.741E-01    0.211E-01
RMM:   2    -0.141746559420E+04   -0.31052E-02   -0.41133E-02  4989   0.198E-01    0.134E-01
RMM:   3    -0.141746546458E+04    0.12962E-03   -0.30483E-03  5304   0.516E-02    0.561E-02
RMM:   4    -0.141746549874E+04   -0.34159E-04   -0.59231E-04  5322   0.209E-02    0.171E-02
RMM:   5    -0.141746547562E+04    0.23124E-04   -0.54207E-05  3671   0.597E-03    0.102E-02
RMM:   6    -0.141746547329E+04    0.23219E-05   -0.44738E-05  3911   0.476E-03
  54 F= -.14174655E+04 E0= -.14174819E+04  d E =-.325645E-01
 curvature:  -2.84 expect dE=-0.358E-01 dE for cont linesearch -0.167E-04
 trial: gam= 0.55545 g(F)=  0.126E-01 g(S)=  0.000E+00 ort = 0.550E-03 (trialstep = 0.163E+01)
 search vector abs. value=  0.291E-01
 bond charge predicted
       N       E                     dE             d eps       ncg     rms          rms(c)
DAV:   1    -0.141747870640E+04   -0.13231E-01   -0.56603E-01  4984   0.691E-01    0.201E-01
RMM:   2    -0.141748127703E+04   -0.25706E-02   -0.33862E-02  4988   0.179E-01    0.127E-01
RMM:   3    -0.141748113185E+04    0.14518E-03   -0.24699E-03  5278   0.475E-02    0.489E-02
RMM:   4    -0.141748113464E+04   -0.27856E-05   -0.45861E-04  5347   0.190E-02    0.107E-02
RMM:   5    -0.141748113082E+04    0.38150E-05   -0.36195E-05  3328   0.529E-03
  55 F= -.14174811E+04 E0= -.14174981E+04  d E =-.156575E-01
 trial-energy change:   -0.015658  1 .order   -0.015934   -0.021060   -0.010808
 step:   5.1355(harm=  3.3484)  dis= 0.01549  next Energy= -1417.490003 (dE=-0.245E-01)
 bond charge predicted
       N       E                     dE             d eps       ncg     rms          rms(c)
DAV:   1    -0.141746820806E+04    0.12927E-01   -0.26205E+00  4960   0.149E+00    0.433E-01
RMM:   2    -0.141748024375E+04   -0.12036E-01   -0.15791E-01  4977   0.387E-01    0.273E-01
RMM:   3    -0.141747952293E+04    0.72082E-03   -0.11537E-02  5279   0.102E-01    0.106E-01
RMM:   4    -0.141747957346E+04   -0.50532E-04   -0.22308E-03  5388   0.408E-02    0.309E-02
RMM:   5    -0.141747950178E+04    0.71679E-04   -0.19705E-04  5139   0.111E-02    0.188E-02
RMM:   6    -0.141747948450E+04    0.17283E-04   -0.10073E-04  4774   0.698E-03    0.737E-03
RMM:   7    -0.141747948434E+04    0.15695E-06   -0.10329E-05  3029   0.272E-03
  56 F= -.14174795E+04 E0= -.14174973E+04  d E =-.140110E-01
 curvature:   0.31 expect dE= 0.106E-01 dE for cont linesearch  0.535E-03
 ZBRENT: interpolating
 opt :   3.3211  next Energy= -1417.486737 (dE=-0.213E-01)
 bond charge predicted
       N       E                     dE             d eps       ncg     rms          rms(c)
DAV:   1    -0.141748340837E+04   -0.39239E-02   -0.70191E-01  4964   0.771E-01    0.224E-01
RMM:   2    -0.141748660357E+04   -0.31952E-02   -0.42284E-02  4977   0.200E-01    0.141E-01
RMM:   3    -0.141748641658E+04    0.18699E-03   -0.30798E-03  5274   0.530E-02    0.547E-02
RMM:   4    -0.141748641674E+04   -0.15887E-06   -0.56873E-04  5333   0.212E-02    0.113E-02
RMM:   5    -0.141748641172E+04    0.50246E-05   -0.44964E-05  3470   0.593E-03
  57 F= -.14174864E+04 E0= -.14175037E+04  d E =-.209384E-01
 curvature:  -3.22 expect dE=-0.413E-01 dE for cont linesearch -0.530E-06
 trial: gam= 1.05768 g(F)=  0.128E-01 g(S)=  0.000E+00 ort = 0.692E-04 (trialstep = 0.126E+01)
 search vector abs. value=  0.455E-01
 bond charge predicted
       N       E                     dE             d eps       ncg     rms          rms(c)
DAV:   1    -0.141749599909E+04   -0.95824E-02   -0.52297E-01  4996   0.664E-01    0.197E-01
RMM:   2    -0.141749828468E+04   -0.22856E-02   -0.30636E-02  4977   0.172E-01    0.122E-01
RMM:   3    -0.141749814913E+04    0.13556E-03   -0.23093E-03  5259   0.454E-02    0.453E-02
RMM:   4    -0.141749815231E+04   -0.31796E-05   -0.39450E-04  5385   0.174E-02    0.105E-02
RMM:   5    -0.141749814842E+04    0.38886E-05   -0.33413E-05  3357   0.504E-03
  58 F= -.14174981E+04 E0= -.14175159E+04  d E =-.117367E-01
 trial-energy change:   -0.011737  1 .order   -0.012245   -0.016205   -0.008286
 step:   2.5762(harm=  2.5762)  dis= 0.00975  next Energy= -1417.502992 (dE=-0.166E-01)
 bond charge predicted
       N       E                     dE             d eps       ncg     rms          rms(c)
DAV:   1    -0.141749990066E+04   -0.17484E-02   -0.57365E-01  5012   0.695E-01    0.207E-01
RMM:   2    -0.141750246283E+04   -0.25622E-02   -0.34135E-02  4977   0.181E-01    0.129E-01
RMM:   3    -0.141750232064E+04    0.14219E-03   -0.26057E-03  5264   0.479E-02    0.483E-02
RMM:   4    -0.141750235692E+04   -0.36284E-04   -0.48067E-04  5462   0.183E-02    0.194E-02
RMM:   5    -0.141750231697E+04    0.39951E-04   -0.53693E-05  3677   0.547E-03    0.899E-03
RMM:   6    -0.141750231497E+04    0.20021E-05   -0.27421E-05  3287   0.399E-03
  59 F= -.14175023E+04 E0= -.14175204E+04  d E =-.159033E-01
 curvature:  -4.55 expect dE=-0.406E-01 dE for cont linesearch -0.439E-04
 trial: gam= 0.59524 g(F)=  0.890E-02 g(S)=  0.000E+00 ort = 0.663E-03 (trialstep = 0.152E+01)
 search vector abs. value=  0.258E-01
 bond charge predicted
       N       E                     dE             d eps       ncg     rms          rms(c)
DAV:   1    -0.141751053641E+04   -0.82194E-02   -0.42018E-01  4980   0.595E-01    0.179E-01
RMM:   2    -0.141751229532E+04   -0.17589E-02   -0.24255E-02  4997   0.153E-01    0.111E-01
RMM:   3    -0.141751218749E+04    0.10783E-03   -0.18635E-03  5285   0.406E-02    0.402E-02
RMM:   4    -0.141751219451E+04   -0.70175E-05   -0.31197E-04  5392   0.155E-02    0.992E-03
RMM:   5    -0.141751218731E+04    0.71916E-05   -0.29136E-05  3313   0.455E-03
  60 F= -.14175122E+04 E0= -.14175300E+04  d E =-.987235E-02
 trial-energy change:   -0.009872  1 .order   -0.010325   -0.014156   -0.006493
 step:   2.8123(harm=  2.8123)  dis= 0.00605  next Energy= -1417.515390 (dE=-0.131E-01)
 bond charge predicted
       N       E                     dE             d eps       ncg     rms          rms(c)
DAV:   1    -0.141751352545E+04   -0.13309E-02   -0.30200E-01  5052   0.505E-01    0.152E-01
RMM:   2    -0.141751480845E+04   -0.12830E-02   -0.17635E-02  4996   0.130E-01    0.944E-02
RMM:   3    -0.141751474230E+04    0.66148E-04   -0.13530E-03  5269   0.344E-02    0.361E-02
RMM:   4    -0.141751478336E+04   -0.41061E-04   -0.29958E-04  5369   0.137E-02    0.197E-02
RMM:   5    -0.141751473343E+04    0.49934E-04   -0.45791E-05  3581   0.473E-03    0.638E-03
RMM:   6    -0.141751473251E+04    0.91726E-06   -0.11884E-05  3041   0.297E-03
  61 F= -.14175147E+04 E0= -.14175324E+04  d E =-.124175E-01
 curvature:  -3.90 expect dE=-0.383E-01 dE for cont linesearch -0.309E-05
 trial: gam= 1.10599 g(F)=  0.982E-02 g(S)=  0.000E+00 ort = 0.143E-03 (trialstep = 0.110E+01)
 search vector abs. value=  0.417E-01
 bond charge predicted
       N       E                     dE             d eps       ncg     rms          rms(c)
DAV:   1    -0.141752210668E+04   -0.73733E-02   -0.34974E-01  4988   0.544E-01    0.167E-01
RMM:   2    -0.141752341555E+04   -0.13089E-02   -0.18319E-02  4982   0.135E-01    0.104E-01
RMM:   3    -0.141752332299E+04    0.92567E-04   -0.15057E-03  5343   0.368E-02    0.321E-02
RMM:   4    -0.141752332716E+04   -0.41704E-05   -0.20532E-04  5403   0.130E-02    0.754E-03
RMM:   5    -0.141752332444E+04    0.27148E-05   -0.15503E-05  3129   0.376E-03
  62 F= -.14175233E+04 E0= -.14175410E+04  d E =-.859193E-02
 trial-energy change:   -0.008592  1 .order   -0.009072   -0.010994   -0.007149
 step:   3.1504(harm=  3.1504)  dis= 0.00584  next Energy= -1417.530450 (dE=-0.157E-01)
 bond charge predicted
       N       E                     dE             d eps       ncg     rms          rms(c)
DAV:   1    -0.141752554919E+04   -0.22220E-02   -0.12095E+00  4960   0.101E+00    0.311E-01
RMM:   2    -0.141753008259E+04   -0.45334E-02   -0.63269E-02  4979   0.251E-01    0.194E-01
RMM:   3    -0.141752975412E+04    0.32846E-03   -0.52004E-03  5331   0.682E-02    0.603E-02
RMM:   4    -0.141752979813E+04   -0.44009E-04   -0.78079E-04  5588   0.242E-02    0.218E-02
RMM:   5    -0.141752974772E+04    0.50413E-04   -0.80156E-05  4126   0.688E-03    0.111E-02
RMM:   6    -0.141752974456E+04    0.31626E-05   -0.24366E-05  3262   0.406E-03
  63 F= -.14175297E+04 E0= -.14175473E+04  d E =-.150120E-01
 curvature:  -6.59 expect dE=-0.617E-01 dE for cont linesearch -0.266E-04
 trial: gam= 0.95660 g(F)=  0.937E-02 g(S)=  0.000E+00 ort = 0.410E-03 (trialstep = 0.130E+01)
 search vector abs. value=  0.483E-01
 bond charge predicted
       N       E                     dE             d eps       ncg     rms          rms(c)
DAV:   1    -0.141753709895E+04   -0.73512E-02   -0.59922E-01  4984   0.710E-01    0.216E-01
RMM:   2    -0.141753945065E+04   -0.23517E-02   -0.31238E-02  4995   0.177E-01    0.136E-01
RMM:   3    -0.141753930917E+04    0.14148E-03   -0.25259E-03  5378   0.476E-02    0.407E-02
RMM:   4    -0.141753931346E+04   -0.42958E-05   -0.30856E-04  5487   0.159E-02    0.940E-03
RMM:   5    -0.141753930974E+04    0.37235E-05   -0.27573E-05  3301   0.471E-03
  64 F= -.14175393E+04 E0= -.14175562E+04  d E =-.956518E-02
 trial-energy change:   -0.009565  1 .order   -0.010265   -0.012739   -0.007791
 step:   3.3588(harm=  3.3588)  dis= 0.00552  next Energy= -1417.546142 (dE=-0.164E-01)
 bond charge predicted
       N       E                     dE             d eps       ncg     rms          rms(c)
DAV:   1    -0.141753903004E+04    0.28342E-03   -0.14867E+00  4960   0.112E+00    0.339E-01
RMM:   2    -0.141754484968E+04   -0.58196E-02   -0.77274E-02  4978   0.279E-01    0.213E-01
RMM:   3    -0.141754450364E+04    0.34604E-03   -0.63669E-03  5380   0.750E-02    0.648E-02
RMM:   4    -0.141754455200E+04   -0.48354E-04   -0.84993E-04  5608   0.249E-02    0.238E-02
RMM:   5    -0.141754449444E+04    0.57555E-04   -0.97781E-05  4328   0.740E-03    0.122E-02
RMM:   6    -0.141754448888E+04    0.55622E-05   -0.33991E-05  3423   0.447E-03
  65 F= -.14175445E+04 E0= -.14175602E+04  d E =-.147443E-01
 curvature:  -8.31 expect dE=-0.968E-01 dE for cont linesearch -0.299E-05
 trial: gam= 1.31211 g(F)=  0.116E-01 g(S)=  0.000E+00 ort =-0.132E-03 (trialstep = 0.877E+00)
 search vector abs. value=  0.945E-01
 bond charge predicted
       N       E                     dE             d eps       ncg     rms          rms(c)
DAV:   1    -0.141755179651E+04   -0.73021E-02   -0.49221E-01  5040   0.640E-01    0.200E-01
RMM:   2    -0.141755337426E+04   -0.15778E-02   -0.22205E-02  4999   0.151E-01    0.124E-01
RMM:   3    -0.141755325362E+04    0.12064E-03   -0.19710E-03  5469   0.418E-02    0.298E-02
RMM:   4    -0.141755325705E+04   -0.34238E-05   -0.18536E-04  5345   0.128E-02    0.718E-03
RMM:   5    -0.141755325793E+04   -0.88859E-06   -0.17073E-05  3121   0.406E-03
  66 F= -.14175533E+04 E0= -.14175687E+04  d E =-.876906E-02
 ZBRENT: can't locate minimum, use default step
 trial-energy change:   -0.008769  1 .order   -0.009340   -0.010063   -0.008617
 step:   3.5093(harm=  6.1060)  dis= 0.00786  next Energy= -1417.579508 (dE=-0.350E-01)
 bond charge predicted
       N       E                     dE             d eps       ncg     rms          rms(c)
DAV:   1    -0.141755799964E+04   -0.47426E-02   -0.44324E+00  4944   0.192E+00    0.598E-01
RMM:   2    -0.141757210695E+04   -0.14107E-01   -0.19898E-01  4983   0.452E-01    0.371E-01
RMM:   3    -0.141757095687E+04    0.11501E-02   -0.17774E-02  5475   0.125E-01    0.892E-02
RMM:   4    -0.141757097384E+04   -0.16976E-04   -0.16240E-03  5578   0.375E-02    0.210E-02
RMM:   5    -0.141757097142E+04    0.24238E-05   -0.18040E-04  5238   0.111E-02    0.102E-02
RMM:   6    -0.141757096693E+04    0.44861E-05   -0.25300E-05  3231   0.451E-03
  67 F= -.14175710E+04 E0= -.14175853E+04  d E =-.264781E-01
 curvature: -18.95 expect dE=-0.261E+00 dE for cont linesearch -0.265E-02
 ZBRENT: increasing intervall
 opt :   8.7732  next Energy= -1417.557532 (dE=-0.130E-01)
 bond charge predicted
       N       E                     dE             d eps       ncg     rms          rms(c)
DAV:   1    -0.141750341183E+04    0.67560E-01   -0.17712E+01  4944   0.384E+00    0.119E+00
RMM:   2    -0.141755986113E+04   -0.56449E-01   -0.79417E-01  4981   0.902E-01    0.740E-01
RMM:   3    -0.141755513238E+04    0.47288E-02   -0.70862E-02  5463   0.250E-01    0.178E-01
RMM:   4    -0.141755522252E+04   -0.90142E-04   -0.65453E-03  5587   0.753E-02    0.437E-02
RMM:   5    -0.141755527830E+04   -0.55782E-04   -0.74990E-04  5823   0.220E-02    0.340E-02
RMM:   6    -0.141755518094E+04    0.97360E-04   -0.16793E-04  4774   0.892E-03    0.117E-02
RMM:   7    -0.141755518120E+04   -0.26094E-06   -0.29834E-05  3327   0.424E-03
  68 F= -.14175552E+04 E0= -.14175674E+04  d E =-.106923E-01
 curvature:  96.09 expect dE= 0.729E+01 dE for cont linesearch  0.930E-01
 ZBRENT: bracketing found
 ZBRENT: interpolating
 opt :   4.9592  next Energy= -1417.573602 (dE=-0.291E-01)
 bond charge predicted
       N       E                     dE             d eps       ncg     rms          rms(c)
DAV:   1    -0.141754671596E+04    0.84650E-02   -0.93084E+00  4944   0.278E+00    0.867E-01
RMM:   2    -0.141757613718E+04   -0.29421E-01   -0.41654E-01  4979   0.653E-01    0.537E-01
RMM:   3    -0.141757363607E+04    0.25011E-02   -0.37248E-02  5447   0.181E-01    0.129E-01
RMM:   4    -0.141757368380E+04   -0.47727E-04   -0.34791E-03  5584   0.551E-02    0.306E-02
RMM:   5    -0.141757369772E+04   -0.13927E-04   -0.40195E-04  5520   0.165E-02    0.181E-02
RMM:   6    -0.141757367234E+04    0.25380E-04   -0.58471E-05  3766   0.609E-03    0.842E-03
RMM:   7    -0.141757367196E+04    0.37743E-06   -0.16077E-05  3081   0.356E-03
  69 F= -.14175737E+04 E0= -.14175874E+04  d E =-.291831E-01
 curvature:  -2.72 expect dE=-0.659E-01 dE for cont linesearch -0.280E-05
 trial: gam= 1.93791 g(F)=  0.242E-01 g(S)=  0.000E+00 ort =-0.312E-03 (trialstep = 0.424E+00)
 search vector abs. value=  0.378E+00
 bond charge predicted
       N       E                     dE             d eps       ncg     rms          rms(c)
DAV:   1    -0.141758187985E+04   -0.82075E-02   -0.45226E-01  4992   0.611E-01    0.193E-01
RMM:   2    -0.141758323759E+04   -0.13577E-02   -0.19911E-02  4986   0.143E-01    0.119E-01
RMM:   3    -0.141758310761E+04    0.12997E-03   -0.18086E-03  5438   0.399E-02    0.273E-02
RMM:   4    -0.141758311251E+04   -0.48982E-05   -0.17184E-04  5375   0.121E-02    0.751E-03
RMM:   5    -0.141758311082E+04    0.16913E-05   -0.13269E-05  3077   0.370E-03
  70 F= -.14175831E+04 E0= -.14175969E+04  d E =-.943886E-02
 ZBRENT: can't locate minimum, use default step
 trial-energy change:   -0.009439  1 .order   -0.009243   -0.009994   -0.008492
 step:   1.6942(harm=  2.8178)  dis= 0.00630  next Energy= -1417.606918 (dE=-0.332E-01)
 bond charge predicted
       N       E                     dE             d eps       ncg     rms          rms(c)
DAV:   1    -0.141758972294E+04   -0.66104E-02   -0.40667E+00  4944   0.183E+00    0.577E-01
RMM:   2    -0.141760212473E+04   -0.12402E-01   -0.17959E-01  4985   0.431E-01    0.358E-01
RMM:   3    -0.141760096890E+04    0.11558E-02   -0.16355E-02  5449   0.120E-01    0.822E-02
RMM:   4    -0.141760101219E+04   -0.43292E-04   -0.15484E-03  5653   0.360E-02    0.227E-02
RMM:   5    -0.141760099847E+04    0.13716E-04   -0.15061E-04  5000   0.103E-02    0.158E-02
RMM:   6    -0.141760099165E+04    0.68170E-05   -0.38916E-05  3484   0.503E-03
  71 F= -.14176010E+04 E0= -.14176148E+04  d E =-.273197E-01
 curvature: -17.59 expect dE=-0.183E+00 dE for cont linesearch -0.292E-02
 ZBRENT: increasing intervall
 opt :   4.2355  next Energy= -1417.590277 (dE=-0.166E-01)
 bond charge predicted
       N       E                     dE             d eps       ncg     rms          rms(c)
DAV:   1    -0.141754075527E+04    0.60243E-01   -0.16257E+01  4944   0.367E+00    0.115E+00
RMM:   2    -0.141759042228E+04   -0.49667E-01   -0.71807E-01  4986   0.861E-01    0.715E-01
RMM:   3    -0.141758560652E+04    0.48158E-02   -0.65252E-02  5443   0.240E-01    0.163E-01
RMM:   4    -0.141758574529E+04   -0.13877E-03   -0.60364E-03  5624   0.720E-02    0.413E-02
RMM:   5    -0.141758575074E+04   -0.54497E-05   -0.60921E-04  5838   0.207E-02    0.265E-02
RMM:   6    -0.141758572610E+04    0.24643E-04   -0.12994E-04  4650   0.806E-03    0.129E-02
RMM:   7    -0.141758572048E+04    0.56197E-05   -0.21403E-05  3246   0.359E-03
  72 F= -.14175857E+04 E0= -.14175995E+04  d E =-.120485E-01
 curvature:  64.61 expect dE= 0.317E+01 dE for cont linesearch  0.512E-01
 ZBRENT: bracketing found
 ZBRENT: interpolating
 opt :   2.4918  next Energy= -1417.604149 (dE=-0.305E-01)
 bond charge predicted
       N       E                     dE             d eps       ncg     rms          rms(c)
DAV:   1    -0.141758301113E+04    0.27150E-02   -0.76630E+00  4944   0.252E+00    0.792E-01
RMM:   2    -0.141760630484E+04   -0.23294E-01   -0.33829E-01  4985   0.591E-01    0.491E-01
RMM:   3    -0.141760403164E+04    0.22732E-02   -0.30719E-02  5438   0.165E-01    0.112E-01
RMM:   4    -0.141760409794E+04   -0.66297E-04   -0.28373E-03  5631   0.496E-02    0.285E-02
RMM:   5    -0.141760410274E+04   -0.48016E-05   -0.28716E-04  5637   0.142E-02    0.191E-02
RMM:   6    -0.141760408474E+04    0.18004E-04   -0.62223E-05  3940   0.591E-03    0.865E-03
RMM:   7    -0.141760408190E+04    0.28376E-05   -0.11226E-05  3077   0.299E-03
  73 F= -.14176041E+04 E0= -.14176179E+04  d E =-.304099E-01
 curvature:  -3.98 expect dE=-0.577E-01 dE for cont linesearch -0.251E-05
 trial: gam= 0.47809 g(F)=  0.145E-01 g(S)=  0.000E+00 ort = 0.489E-03 (trialstep = 0.837E+00)
 search vector abs. value=  0.101E+00
 bond charge predicted
       N       E                     dE             d eps       ncg     rms          rms(c)
DAV:   1    -0.141761267210E+04   -0.85874E-02   -0.47425E-01  5036   0.631E-01    0.197E-01
RMM:   2    -0.141761425721E+04   -0.15851E-02   -0.22729E-02  4980   0.152E-01    0.123E-01
RMM:   3    -0.141761412089E+04    0.13632E-03   -0.20036E-03  5417   0.417E-02    0.328E-02
RMM:   4    -0.141761412492E+04   -0.40364E-05   -0.22488E-04  5482   0.134E-02    0.893E-03
RMM:   5    -0.141761412104E+04    0.38799E-05   -0.18153E-05  3187   0.402E-03
  74 F= -.14176141E+04 E0= -.14176280E+04  d E =-.100391E-01
 trial-energy change:   -0.010039  1 .order   -0.010311   -0.012319   -0.008302
 step:   2.5675(harm=  2.5675)  dis= 0.00789  next Energy= -1417.622973 (dE=-0.189E-01)
 bond charge predicted
       N       E                     dE             d eps       ncg     rms          rms(c)
DAV:   1    -0.141761538389E+04   -0.12590E-02   -0.20243E+00  4944   0.130E+00    0.407E-01
RMM:   2    -0.141762223959E+04   -0.68557E-02   -0.97203E-02  4976   0.313E-01    0.255E-01
RMM:   3    -0.141762166691E+04    0.57267E-03   -0.86363E-03  5426   0.864E-02    0.683E-02
RMM:   4    -0.141762170917E+04   -0.42257E-04   -0.10155E-03  5653   0.278E-02    0.235E-02
RMM:   5    -0.141762166448E+04    0.44690E-04   -0.10744E-04  4477   0.807E-03    0.141E-02
RMM:   6    -0.141762165711E+04    0.73735E-05   -0.35991E-05  3477   0.465E-03
  75 F= -.14176217E+04 E0= -.14176356E+04  d E =-.175752E-01
 curvature:  -8.84 expect dE=-0.618E-01 dE for cont linesearch -0.718E-05
 trial: gam= 0.45081 g(F)=  0.700E-02 g(S)=  0.000E+00 ort = 0.287E-03 (trialstep = 0.118E+01)
 search vector abs. value=  0.278E-01
 bond charge predicted
       N       E                     dE             d eps       ncg     rms          rms(c)
DAV:   1    -0.141762549207E+04   -0.38276E-02   -0.29218E-01  5056   0.498E-01    0.147E-01
RMM:   2    -0.141762681630E+04   -0.13242E-02   -0.17261E-02  5002   0.129E-01    0.938E-02
RMM:   3    -0.141762672669E+04    0.89612E-04   -0.12797E-03  5262   0.339E-02    0.338E-02
RMM:   4    -0.141762672687E+04   -0.17683E-06   -0.20470E-04  5193   0.132E-02    0.784E-03
RMM:   5    -0.141762672831E+04   -0.14417E-05   -0.27076E-05  3245   0.420E-03
  76 F= -.14176267E+04 E0= -.14176409E+04  d E =-.507120E-02
 trial-energy change:   -0.005071  1 .order   -0.005546   -0.008431   -0.002661
 step:   1.7288(harm=  1.7288)  dis= 0.00257  next Energy= -1417.627816 (dE=-0.616E-02)
 bond charge predicted
       N       E                     dE             d eps       ncg     rms          rms(c)
DAV:   1    -0.141762696838E+04   -0.24151E-03   -0.62481E-02  5280   0.230E-01    0.683E-02
RMM:   2    -0.141762725775E+04   -0.28937E-03   -0.37671E-03  5006   0.604E-02    0.438E-02
RMM:   3    -0.141762724146E+04    0.16292E-04   -0.28242E-04  5246   0.158E-02    0.164E-02
RMM:   4    -0.141762725006E+04   -0.86010E-05   -0.52250E-05  3834   0.635E-03
  77 F= -.14176273E+04 E0= -.14176415E+04  d E =-.559295E-02
 curvature:  -3.38 expect dE=-0.663E-02 dE for cont linesearch -0.184E-04
 trial: gam= 0.26078 g(F)=  0.196E-02 g(S)=  0.000E+00 ort = 0.389E-03 (trialstep = 0.129E+01)
 search vector abs. value=  0.406E-02
 bond charge predicted
       N       E                     dE             d eps       ncg     rms          rms(c)
DAV:   1    -0.141762881650E+04   -0.15750E-02   -0.47136E-02  5096   0.199E-01    0.560E-02
RMM:   2    -0.141762907444E+04   -0.25794E-03   -0.32392E-03  5010   0.536E-02    0.346E-02
RMM:   3    -0.141762907051E+04    0.39360E-05   -0.21873E-04  5231   0.138E-02    0.166E-02
RMM:   4    -0.141762908239E+04   -0.11880E-04   -0.60740E-05  3973   0.637E-03    0.110E-02
RMM:   5    -0.141762906774E+04    0.14647E-04   -0.12366E-05  3084   0.289E-03    0.247E-03
RMM:   6    -0.141762906825E+04   -0.50939E-06   -0.33466E-06  2946   0.177E-03
  78 F= -.14176291E+04 E0= -.14176436E+04  d E =-.181819E-02
 trial-energy change:   -0.001818  1 .order   -0.001975   -0.002667   -0.001283
 step:   2.4909(harm=  2.4909)  dis= 0.00222  next Energy= -1417.629820 (dE=-0.257E-02)
 bond charge predicted
       N       E                     dE             d eps       ncg     rms          rms(c)
DAV:   1    -0.141762938921E+04   -0.32147E-03   -0.40574E-02  5080   0.184E-01    0.517E-02
RMM:   2    -0.141762960399E+04   -0.21478E-03   -0.27331E-03  5007   0.492E-02    0.318E-02
RMM:   3    -0.141762959681E+04    0.71829E-05   -0.17957E-04  5240   0.125E-02    0.142E-02
RMM:   4    -0.141762959698E+04   -0.17216E-06   -0.30578E-05  3301   0.526E-03
  79 F= -.14176296E+04 E0= -.14176444E+04  d E =-.234692E-02
 curvature:  -2.45 expect dE=-0.292E-02 dE for cont linesearch -0.229E-06
 trial: gam= 0.62903 g(F)=  0.119E-02 g(S)=  0.000E+00 ort = 0.195E-04 (trialstep = 0.153E+01)
 search vector abs. value=  0.282E-02
 bond charge predicted
       N       E                     dE             d eps       ncg     rms          rms(c)
DAV:   1    -0.141763057705E+04   -0.98024E-03   -0.41669E-02  5088   0.187E-01    0.534E-02
RMM:   2    -0.141763077571E+04   -0.19866E-03   -0.25908E-03  5014   0.482E-02    0.328E-02
RMM:   3    -0.141763077183E+04    0.38793E-05   -0.18207E-04  5199   0.126E-02    0.148E-02
RMM:   4    -0.141763078055E+04   -0.87265E-05   -0.47989E-05  3726   0.576E-03
  80 F= -.14176308E+04 E0= -.14176456E+04  d E =-.118357E-02
 trial-energy change:   -0.001184  1 .order   -0.001281   -0.001846   -0.000716
 step:   2.5023(harm=  2.5023)  dis= 0.00216  next Energy= -1417.631104 (dE=-0.151E-02)
 bond charge predicted
       N       E                     dE             d eps       ncg     rms          rms(c)
DAV:   1    -0.141763084254E+04   -0.70718E-04   -0.16633E-02  5304   0.119E-01    0.337E-02
RMM:   2    -0.141763092863E+04   -0.86084E-04   -0.10836E-03  5014   0.310E-02    0.209E-02
RMM:   3    -0.141763093095E+04   -0.23256E-05   -0.74730E-05  4122   0.820E-03
  81 F= -.14176309E+04 E0= -.14176458E+04  d E =-.133397E-02
 curvature:  -2.93 expect dE=-0.249E-02 dE for cont linesearch -0.125E-08
 trial: gam= 0.71165 g(F)=  0.848E-03 g(S)=  0.000E+00 ort =-0.110E-05 (trialstep = 0.173E+01)
 search vector abs. value=  0.228E-02
 bond charge predicted
       N       E                     dE             d eps       ncg     rms          rms(c)
DAV:   1    -0.141763158716E+04   -0.65853E-03   -0.44829E-02  5004   0.197E-01    0.594E-02
RMM:   2    -0.141763178919E+04   -0.20203E-03   -0.26783E-03  5014   0.501E-02    0.378E-02
RMM:   3    -0.141763180830E+04   -0.19110E-04   -0.22847E-04  5402   0.132E-02    0.234E-02
RMM:   4    -0.141763178289E+04    0.25412E-04   -0.66274E-05  3893   0.593E-03    0.100E-02
RMM:   5    -0.141763177629E+04    0.65956E-05   -0.85375E-06  3019   0.299E-03
  82 F= -.14176318E+04 E0= -.14176468E+04  d E =-.845335E-03
 trial-energy change:   -0.000845  1 .order   -0.000946   -0.001463   -0.000429
 step:   2.4433(harm=  2.4433)  dis= 0.00231  next Energy= -1417.631966 (dE=-0.104E-02)
 bond charge predicted
       N       E                     dE             d eps       ncg     rms          rms(c)
DAV:   1    -0.141763177642E+04    0.64700E-05   -0.76784E-03  5344   0.815E-02    0.235E-02
RMM:   2    -0.141763181281E+04   -0.36398E-04   -0.46496E-04  5017   0.209E-02    0.149E-02
RMM:   3    -0.141763181221E+04    0.60305E-06   -0.27817E-05  3345   0.561E-03
  83 F= -.14176318E+04 E0= -.14176470E+04  d E =-.881255E-03
 curvature:  -3.28 expect dE=-0.205E-02 dE for cont linesearch -0.641E-06
 trial: gam= 0.69082 g(F)=  0.626E-03 g(S)=  0.000E+00 ort =-0.211E-04 (trialstep = 0.187E+01)
 search vector abs. value=  0.168E-02
 bond charge predicted
       N       E                     dE             d eps       ncg     rms          rms(c)
DAV:   1    -0.141763233624E+04   -0.52342E-03   -0.42486E-02  5004   0.191E-01    0.542E-02
RMM:   2    -0.141763253568E+04   -0.19944E-03   -0.24790E-03  5018   0.491E-02    0.348E-02
RMM:   3    -0.141763253183E+04    0.38453E-05   -0.18462E-04  5235   0.130E-02    0.134E-02
RMM:   4    -0.141763253857E+04   -0.67432E-05   -0.35506E-05  3513   0.559E-03
  84 F= -.14176325E+04 E0= -.14176477E+04  d E =-.726363E-03
 trial-energy change:   -0.000726  1 .order   -0.000788   -0.001143   -0.000433
 step:   3.0099(harm=  3.0099)  dis= 0.00272  next Energy= -1417.632732 (dE=-0.920E-03)
 bond charge predicted
       N       E                     dE             d eps       ncg     rms          rms(c)
DAV:   1    -0.141763249762E+04    0.34207E-04   -0.15769E-02  5104   0.117E-01    0.331E-02
RMM:   2    -0.141763257901E+04   -0.81386E-04   -0.97711E-04  5020   0.307E-02    0.215E-02
RMM:   3    -0.141763258132E+04   -0.23120E-05   -0.69692E-05  4025   0.829E-03
  85 F= -.14176326E+04 E0= -.14176477E+04  d E =-.769112E-03
 curvature:  -4.14 expect dE=-0.261E-02 dE for cont linesearch -0.685E-05
 trial: gam= 0.99394 g(F)=  0.631E-03 g(S)=  0.000E+00 ort =-0.527E-04 (trialstep = 0.161E+01)
 search vector abs. value=  0.219E-02
 bond charge predicted
       N       E                     dE             d eps       ncg     rms          rms(c)
DAV:   1    -0.141763284190E+04   -0.26289E-03   -0.41073E-02  5004   0.189E-01    0.551E-02
RMM:   2    -0.141763304306E+04   -0.20116E-03   -0.24958E-03  5014   0.487E-02    0.358E-02
RMM:   3    -0.141763306638E+04   -0.23317E-04   -0.21369E-04  5427   0.129E-02    0.240E-02
RMM:   4    -0.141763303915E+04    0.27221E-04   -0.61349E-05  3827   0.590E-03    0.931E-03
RMM:   5    -0.141763303457E+04    0.45806E-05   -0.77780E-06  3007   0.299E-03
  86 F= -.14176330E+04 E0= -.14176480E+04  d E =-.453253E-03
 trial-energy change:   -0.000453  1 .order   -0.000518   -0.000933   -0.000102
 step:   2.1258(harm=  1.8116)  dis= 0.00202  next Energy= -1417.633049 (dE=-0.467E-03)
 bond charge predicted
       N       E                     dE             d eps       ncg     rms          rms(c)
DAV:   1    -0.141763297276E+04    0.66395E-04   -0.41161E-03  5488   0.600E-02    0.168E-02
RMM:   2    -0.141763299431E+04   -0.21555E-04   -0.25887E-04  5019   0.157E-02    0.108E-02
RMM:   3    -0.141763299432E+04   -0.89422E-08   -0.13681E-05  3038   0.432E-03
  87 F= -.14176330E+04 E0= -.14176479E+04  d E =-.413002E-03
 curvature:   5.14 expect dE= 0.227E-02 dE for cont linesearch  0.354E-04
 ZBRENT: interpolating
 opt :   1.7877  next Energy= -1417.633040 (dE=-0.459E-03)
 bond charge predicted
       N       E                     dE             d eps       ncg     rms          rms(c)
DAV:   1    -0.141763302498E+04   -0.30662E-04   -0.18124E-03  5134   0.398E-02    0.113E-02
RMM:   2    -0.141763303338E+04   -0.84056E-05   -0.10656E-04  4914   0.101E-02    0.726E-03
RMM:   3    -0.141763303418E+04   -0.79608E-06   -0.70658E-06  2833   0.283E-03
  88 F= -.14176330E+04 E0= -.14176480E+04  d E =-.452857E-03
 curvature:  -0.80 expect dE=-0.245E-03 dE for cont linesearch -0.655E-07
 trial: gam= 0.31992 g(F)=  0.304E-03 g(S)=  0.000E+00 ort = 0.134E-04 (trialstep = 0.165E+01)
 search vector abs. value=  0.537E-03
 bond charge predicted
       N       E                     dE             d eps       ncg     rms          rms(c)
DAV:   1    -0.141763320528E+04   -0.17190E-03   -0.12492E-02  5048   0.104E-01    0.277E-02
RMM:   2    -0.141763327846E+04   -0.73179E-04   -0.89147E-04  5003   0.289E-02    0.185E-02
RMM:   3    -0.141763327451E+04    0.39469E-05   -0.48486E-05  3714   0.722E-03
  89 F= -.14176333E+04 E0= -.14176482E+04  d E =-.240334E-03
 trial-energy change:   -0.000240  1 .order   -0.000261   -0.000509   -0.000013
 step:   1.6914(harm=  1.6914)  dis= 0.00075  next Energy= -1417.633295 (dE=-0.261E-03)
 reached required accuracy - stopping structural energy minimisation
