 running on   20 total cores
 distrk:  each k-point on   20 cores,    1 groups
 distr:  one band on   10 cores,    2 groups
 using from now: INCAR     
 vasp.5.4.1 24Jun15 (build Nov 12 2015 12:40:29) complex                        
  
 POSCAR found type information on POSCAR  Si In H 
 POSCAR found :  3 types and     272 ions
 scaLAPACK will be used

 ----------------------------------------------------------------------------- 
|                                                                             |
|           W    W    AA    RRRRR   N    N  II  N    N   GGGG   !!!           |
|           W    W   A  A   R    R  NN   N  II  NN   N  G    G  !!!           |
|           W    W  A    A  R    R  N N  N  II  N N  N  G       !!!           |
|           W WW W  AAAAAA  RRRRR   N  N N  II  N  N N  G  GGG   !            |
|           WW  WW  A    A  R   R   N   NN  II  N   NN  G    G                |
|           W    W  A    A  R    R  N    N  II  N    N   GGGG   !!!           |
|                                                                             |
|      For optimal performance we recommend to set                            |
|        NCORE= 4 - approx SQRT( number of cores)                             |
|      NCORE specifies how many cores store one orbital (NPAR=cpu/NCORE).     |
|      This setting can  greatly improve the performance of VASP for DFT.     |
|      The default, NPAR=number of cores might be grossly inefficient         |
|      on modern multi-core architectures or massively parallel machines.     |
|      Do your own testing !!!!                                               |
|      Unfortunately you need to use the default for GW and RPA calculations. |
|      (for HF NCORE is supported but not extensively tested yet)             |
|                                                                             |
 ----------------------------------------------------------------------------- 

 LDA part: xc-table for Ceperly-Alder, standard interpolation
 POSCAR, INCAR and KPOINTS ok, starting setup
 WARNING: small aliasing (wrap around) errors must be expected
 FFT: planning ...
 WAVECAR not read
 WARNING: random wavefunctions but no delay for mixing, default for NELMDL
 entering main loop
       N       E                     dE             d eps       ncg     rms          rms(c)
DAV:   1     0.391256269884E+04    0.39126E+04   -0.20733E+05  5240   0.620E+02
DAV:   2    -0.930162401042E+03   -0.48427E+04   -0.46732E+04  6544   0.169E+02
DAV:   3    -0.142399376588E+04   -0.49383E+03   -0.48789E+03  5552   0.549E+01
DAV:   4    -0.144795787628E+04   -0.23964E+02   -0.23766E+02  7240   0.130E+01
DAV:   5    -0.144870567700E+04   -0.74780E+00   -0.74667E+00  7040   0.232E+00    0.347E+01
RMM:   6    -0.141232479227E+04    0.36381E+02   -0.67366E+01  5065   0.387E+00    0.193E+01
RMM:   7    -0.140317223784E+04    0.91526E+01   -0.23648E+01  4968   0.309E+00    0.766E+00
RMM:   8    -0.139931292329E+04    0.38593E+01   -0.73481E+00  5187   0.181E+00    0.186E+00
RMM:   9    -0.139915516964E+04    0.15775E+00   -0.11238E+00  5480   0.670E-01    0.858E-01
RMM:  10    -0.139912821847E+04    0.26951E-01   -0.11997E-01  5496   0.262E-01    0.576E-01
RMM:  11    -0.139913311174E+04   -0.48933E-02   -0.52938E-02  5392   0.120E-01    0.559E-01
RMM:  12    -0.139911124765E+04    0.21864E-01   -0.27074E-02  5118   0.931E-02    0.234E-01
RMM:  13    -0.139911937421E+04   -0.81266E-02   -0.10690E-02  5036   0.628E-02    0.149E-01
RMM:  14    -0.139912568868E+04   -0.63145E-02   -0.43099E-03  5055   0.390E-02    0.101E-01
RMM:  15    -0.139913819488E+04   -0.12506E-01   -0.61017E-03  4945   0.435E-02    0.733E-02
RMM:  16    -0.139914835786E+04   -0.10163E-01   -0.29998E-03  4959   0.288E-02    0.423E-02
RMM:  17    -0.139915633461E+04   -0.79767E-02   -0.14044E-03  4944   0.203E-02    0.268E-02
RMM:  18    -0.139916102990E+04   -0.46953E-02   -0.39122E-04  4815   0.113E-02    0.179E-02
RMM:  19    -0.139916463793E+04   -0.36080E-02   -0.25727E-04  4505   0.920E-03    0.939E-03
RMM:  20    -0.139916590970E+04   -0.12718E-02   -0.64173E-05  3810   0.464E-03    0.487E-03
RMM:  21    -0.139916659755E+04   -0.68785E-03   -0.24804E-05  3290   0.299E-03    0.282E-03
RMM:  22    -0.139916694903E+04   -0.35149E-03   -0.11006E-05  2943   0.200E-03    0.186E-03
RMM:  23    -0.139916719706E+04   -0.24803E-03   -0.10135E-05  2765   0.178E-03    0.110E-03
RMM:  24    -0.139916730146E+04   -0.10439E-03   -0.40420E-06  2334   0.125E-03    0.814E-04
RMM:  25    -0.139916737260E+04   -0.71146E-04   -0.21696E-06  1903   0.104E-03    0.458E-04
RMM:  26    -0.139916739452E+04   -0.21913E-04   -0.72800E-07  1517   0.848E-04    0.293E-04
RMM:  27    -0.139916742118E+04   -0.26660E-04   -0.57780E-07  1460   0.841E-04    0.163E-04
RMM:  28    -0.139916742436E+04   -0.31848E-05   -0.63805E-08  1098   0.719E-04
   1 F= -.13991674E+04 E0= -.13991294E+04  d E =-.139917E+04
 curvature:   0.00 expect dE= 0.000E+00 dE for cont linesearch  0.000E+00
 trial: gam= 0.00000 g(F)=  0.174E+01 g(S)=  0.000E+00 ort = 0.000E+00 (trialstep = 0.100E+01)
 search vector abs. value=  0.174E+01
 bond charge predicted
       N       E                     dE             d eps       ncg     rms          rms(c)
DAV:   1    -0.140047104146E+04   -0.13036E+01   -0.16528E+01  5392   0.362E+00    0.860E-01
RMM:   2    -0.140059555322E+04   -0.12451E+00   -0.14700E+00  4990   0.109E+00    0.526E-01
RMM:   3    -0.140059257299E+04    0.29802E-02   -0.75142E-02  5299   0.259E-01    0.312E-01
RMM:   4    -0.140059153278E+04    0.10402E-02   -0.27608E-02  5251   0.127E-01    0.721E-02
RMM:   5    -0.140059108449E+04    0.44829E-03   -0.15153E-03  5073   0.325E-02    0.477E-02
RMM:   6    -0.140059114421E+04   -0.59721E-04   -0.10077E-03  5161   0.203E-02    0.389E-02
RMM:   7    -0.140059106885E+04    0.75360E-04   -0.19103E-04  4895   0.773E-03    0.200E-02
RMM:   8    -0.140059105186E+04    0.16991E-04   -0.55541E-05  3959   0.499E-03    0.663E-03
RMM:   9    -0.140059108051E+04   -0.28644E-04   -0.13963E-05  3061   0.293E-03    0.356E-03
RMM:  10    -0.140059109993E+04   -0.19423E-04   -0.50355E-06  2978   0.201E-03    0.184E-03
RMM:  11    -0.140059110928E+04   -0.93546E-05   -0.17120E-06  2366   0.130E-03
   2 F= -.14005911E+04 E0= -.14005547E+04  d E =-.142368E+01
 trial-energy change:   -1.423685  1 .order   -1.422706   -1.736201   -1.109211
 step:   2.7691(harm=  2.7691)  dis= 0.08967  next Energy= -1401.571285 (dE=-0.240E+01)
 bond charge predicted
       N       E                     dE             d eps       ncg     rms          rms(c)
DAV:   1    -0.140113159626E+04   -0.54050E+00   -0.51931E+01  5176   0.645E+00    0.152E+00
RMM:   2    -0.140152101166E+04   -0.38942E+00   -0.46344E+00  4984   0.195E+00    0.934E-01
RMM:   3    -0.140151180250E+04    0.92092E-02   -0.23709E-01  5280   0.460E-01    0.565E-01
RMM:   4    -0.140150954131E+04    0.22612E-02   -0.92172E-02  5256   0.228E-01    0.161E-01
RMM:   5    -0.140150609216E+04    0.34491E-02   -0.55090E-03  5032   0.598E-02    0.878E-02
RMM:   6    -0.140150612058E+04   -0.28411E-04   -0.47524E-03  5146   0.422E-02    0.550E-02
RMM:   7    -0.140150607173E+04    0.48841E-04   -0.50344E-04  5372   0.139E-02    0.405E-02
RMM:   8    -0.140150595500E+04    0.11674E-03   -0.26591E-04  4875   0.966E-03    0.126E-02
RMM:   9    -0.140150602905E+04   -0.74058E-04   -0.59555E-05  3993   0.490E-03    0.747E-03
RMM:  10    -0.140150606515E+04   -0.36101E-04   -0.13515E-05  3064   0.292E-03    0.409E-03
RMM:  11    -0.140150609217E+04   -0.27012E-04   -0.86619E-06  2985   0.217E-03    0.264E-03
RMM:  12    -0.140150614358E+04   -0.51414E-04   -0.60131E-06  2860   0.175E-03    0.191E-03
RMM:  13    -0.140150617972E+04   -0.36137E-04   -0.28524E-06  2173   0.124E-03    0.104E-03
RMM:  14    -0.140150622228E+04   -0.42565E-04   -0.61565E-06  2786   0.143E-03    0.112E-03
RMM:  15    -0.140150623533E+04   -0.13048E-04   -0.10016E-06  1432   0.811E-04    0.577E-04
RMM:  16    -0.140150624576E+04   -0.10431E-04   -0.12599E-06  1550   0.917E-04    0.295E-04
RMM:  17    -0.140150625138E+04   -0.56200E-05   -0.51833E-07  1277   0.822E-04
   3 F= -.14015063E+04 E0= -.14014756E+04  d E =-.233883E+01
 curvature:  -1.38 expect dE=-0.255E+01 dE for cont linesearch -0.654E-02
 trial: gam= 1.11307 g(F)=  0.184E+01 g(S)=  0.000E+00 ort =-0.906E-01 (trialstep = 0.620E+00)
 search vector abs. value=  0.379E+01
 bond charge predicted
       N       E                     dE             d eps       ncg     rms          rms(c)
DAV:   1    -0.140241719645E+04   -0.91095E+00   -0.10841E+01  5168   0.280E+00    0.720E-01
RMM:   2    -0.140249037170E+04   -0.73175E-01   -0.90552E-01  4972   0.839E-01    0.405E-01
RMM:   3    -0.140248941734E+04    0.95436E-03   -0.52135E-02  5290   0.204E-01    0.250E-01
RMM:   4    -0.140248907494E+04    0.34241E-03   -0.16242E-02  5352   0.958E-02    0.920E-02
RMM:   5    -0.140248826239E+04    0.81255E-03   -0.12066E-03  5045   0.275E-02    0.386E-02
RMM:   6    -0.140248823988E+04    0.22513E-04   -0.66986E-04  5132   0.166E-02    0.143E-02
RMM:   7    -0.140248825072E+04   -0.10844E-04   -0.33042E-05  3440   0.513E-03    0.847E-03
RMM:   8    -0.140248825275E+04   -0.20315E-05   -0.99290E-06  3058   0.293E-03
   4 F= -.14024883E+04 E0= -.14024578E+04  d E =-.982001E+00
 ZBRENT: can't locate minimum, use default step
 trial-energy change:   -0.982001  1 .order   -0.978575   -1.079451   -0.877698
 step:   2.4799(harm=  3.3170)  dis= 0.09686  next Energy= -1403.936843 (dE=-0.243E+01)
 bond charge predicted
       N       E                     dE             d eps       ncg     rms          rms(c)
DAV:   1    -0.140331799438E+04   -0.82974E+00   -0.99441E+01  5088   0.849E+00    0.225E+00
RMM:   2    -0.140398359987E+04   -0.66561E+00   -0.84743E+00  4977   0.259E+00    0.126E+00
RMM:   3    -0.140397210300E+04    0.11497E-01   -0.48621E-01  5268   0.617E-01    0.783E-01
RMM:   4    -0.140396517732E+04    0.69257E-02   -0.15746E-01  5342   0.303E-01    0.276E-01
RMM:   5    -0.140395837895E+04    0.67984E-02   -0.10856E-02  5008   0.840E-02    0.117E-01
RMM:   6    -0.140395813389E+04    0.24505E-03   -0.56652E-03  5185   0.496E-02    0.569E-02
RMM:   7    -0.140395824838E+04   -0.11449E-03   -0.80837E-04  5419   0.166E-02    0.516E-02
RMM:   8    -0.140395804534E+04    0.20305E-03   -0.17827E-04  4580   0.842E-03    0.171E-02
RMM:   9    -0.140395814452E+04   -0.99181E-04   -0.13159E-04  4812   0.671E-03    0.973E-03
RMM:  10    -0.140395818670E+04   -0.42185E-04   -0.24166E-05  3283   0.334E-03    0.546E-03
RMM:  11    -0.140395822507E+04   -0.38362E-04   -0.17367E-05  3151   0.264E-03    0.381E-03
RMM:  12    -0.140395831403E+04   -0.88963E-04   -0.14011E-05  3130   0.238E-03    0.290E-03
RMM:  13    -0.140395838543E+04   -0.71403E-04   -0.10554E-05  2820   0.177E-03    0.174E-03
RMM:  14    -0.140395846368E+04   -0.78251E-04   -0.18242E-05  3166   0.202E-03    0.209E-03
RMM:  15    -0.140395847811E+04   -0.14428E-04   -0.27113E-06  1844   0.110E-03    0.643E-04
RMM:  16    -0.140395849853E+04   -0.20416E-04   -0.45703E-06  2488   0.125E-03    0.976E-04
RMM:  17    -0.140395850168E+04   -0.31537E-05   -0.35493E-07  1223   0.725E-04
   5 F= -.14039585E+04 E0= -.14039330E+04  d E =-.245225E+01
 curvature:  -3.26 expect dE=-0.485E+01 dE for cont linesearch -0.202E-02
 trial: gam= 0.34614 g(F)=  0.149E+01 g(S)=  0.000E+00 ort = 0.484E-01 (trialstep = 0.992E+00)
 search vector abs. value=  0.197E+01
 bond charge predicted
       N       E                     dE             d eps       ncg     rms          rms(c)
DAV:   1    -0.140500798581E+04   -0.10495E+01   -0.14478E+01  5168   0.347E+00    0.875E-01
RMM:   2    -0.140511870802E+04   -0.11072E+00   -0.13877E+00  5003   0.105E+00    0.544E-01
RMM:   3    -0.140511639570E+04    0.23123E-02   -0.79253E-02  5295   0.255E-01    0.334E-01
RMM:   4    -0.140511456233E+04    0.18334E-02   -0.27601E-02  5203   0.132E-01    0.669E-02
RMM:   5    -0.140511414886E+04    0.41347E-03   -0.12784E-03  4992   0.328E-02    0.380E-02
RMM:   6    -0.140511419147E+04   -0.42607E-04   -0.13514E-03  5103   0.228E-02    0.212E-02
RMM:   7    -0.140511419090E+04    0.56469E-06   -0.75758E-05  4047   0.672E-03
   6 F= -.14051142E+04 E0= -.14051005E+04  d E =-.115569E+01
 trial-energy change:   -1.155689  1 .order   -1.155193   -1.490637   -0.819748
 step:   2.2040(harm=  2.2040)  dis= 0.04729  next Energy= -1405.614511 (dE=-0.166E+01)
 bond charge predicted
       N       E                     dE             d eps       ncg     rms          rms(c)
DAV:   1    -0.140543355920E+04   -0.31937E+00   -0.21663E+01  5264   0.425E+00    0.107E+00
RMM:   2    -0.140559954115E+04   -0.16598E+00   -0.20916E+00  5004   0.130E+00    0.659E-01
RMM:   3    -0.140559675295E+04    0.27882E-02   -0.12165E-01  5303   0.314E-01    0.407E-01
RMM:   4    -0.140559441057E+04    0.23424E-02   -0.41525E-02  5207   0.162E-01    0.924E-02
RMM:   5    -0.140559388733E+04    0.52324E-03   -0.23289E-03  5107   0.412E-02    0.753E-02
RMM:   6    -0.140559355927E+04    0.32806E-03   -0.92786E-04  5215   0.215E-02    0.465E-02
RMM:   7    -0.140559359611E+04   -0.36845E-04   -0.89635E-04  4965   0.150E-02    0.209E-02
RMM:   8    -0.140559366263E+04   -0.66517E-04   -0.49107E-05  3709   0.601E-03    0.104E-02
RMM:   9    -0.140559381169E+04   -0.14906E-03   -0.72685E-05  4132   0.496E-03    0.661E-03
RMM:  10    -0.140559389956E+04   -0.87864E-04   -0.11277E-05  3101   0.245E-03    0.435E-03
RMM:  11    -0.140559400910E+04   -0.10955E-03   -0.24308E-05  3282   0.263E-03    0.372E-03
RMM:  12    -0.140559416051E+04   -0.15141E-03   -0.23553E-05  3134   0.232E-03    0.194E-03
RMM:  13    -0.140559424122E+04   -0.80711E-04   -0.14708E-05  2778   0.175E-03    0.107E-03
RMM:  14    -0.140559429138E+04   -0.50153E-04   -0.91577E-06  2104   0.133E-03    0.521E-04
RMM:  15    -0.140559430508E+04   -0.13703E-04   -0.17948E-06  1514   0.918E-04    0.335E-04
RMM:  16    -0.140559431823E+04   -0.13147E-04   -0.18513E-06  1622   0.941E-04    0.202E-04
RMM:  17    -0.140559432271E+04   -0.44861E-05   -0.51049E-07  1287   0.791E-04
   7 F= -.14055943E+04 E0= -.14055920E+04  d E =-.163582E+01
 curvature:  -1.45 expect dE=-0.166E+01 dE for cont linesearch -0.126E-02
 trial: gam= 0.80153 g(F)=  0.115E+01 g(S)=  0.000E+00 ort =-0.415E-01 (trialstep = 0.104E+01)
 search vector abs. value=  0.235E+01
 bond charge predicted
       N       E                     dE             d eps       ncg     rms          rms(c)
DAV:   1    -0.140641900315E+04   -0.82468E+00   -0.14925E+01  5132   0.342E+00    0.876E-01
RMM:   2    -0.140651428302E+04   -0.95280E-01   -0.12426E+00  4996   0.983E-01    0.518E-01
RMM:   3    -0.140651347334E+04    0.80968E-03   -0.78233E-02  5299   0.242E-01    0.295E-01
RMM:   4    -0.140651279951E+04    0.67383E-03   -0.23176E-02  5260   0.120E-01    0.646E-02
RMM:   5    -0.140651238711E+04    0.41240E-03   -0.12153E-03  5015   0.311E-02    0.372E-02
RMM:   6    -0.140651247485E+04   -0.87747E-04   -0.13594E-03  5110   0.216E-02    0.204E-02
RMM:   7    -0.140651245674E+04    0.18109E-04   -0.57849E-05  3859   0.662E-03    0.107E-02
RMM:   8    -0.140651248359E+04   -0.26843E-04   -0.75260E-05  4142   0.518E-03    0.794E-03
RMM:   9    -0.140651251654E+04   -0.32948E-04   -0.25986E-05  3393   0.325E-03    0.688E-03
RMM:  10    -0.140651254050E+04   -0.23969E-04   -0.14282E-05  3105   0.260E-03    0.252E-03
RMM:  11    -0.140651256943E+04   -0.28922E-04   -0.74409E-06  2943   0.181E-03    0.188E-03
RMM:  12    -0.140651261475E+04   -0.45319E-04   -0.71009E-06  2615   0.155E-03    0.143E-03
RMM:  13    -0.140651264773E+04   -0.32987E-04   -0.48352E-06  2033   0.124E-03    0.933E-04
RMM:  14    -0.140651267578E+04   -0.28048E-04   -0.62108E-06  2369   0.129E-03    0.529E-04
RMM:  15    -0.140651268448E+04   -0.86969E-05   -0.10816E-06  1352   0.813E-04
   8 F= -.14065127E+04 E0= -.14065115E+04  d E =-.918362E+00
 trial-energy change:   -0.918362  1 .order   -0.911902   -1.154377   -0.669428
 step:   2.2590(harm=  2.4713)  dis= 0.04911  next Energy= -1406.916782 (dE=-0.132E+01)
 bond charge predicted
       N       E                     dE             d eps       ncg     rms          rms(c)
DAV:   1    -0.140681349979E+04   -0.30082E+00   -0.20856E+01  5212   0.405E+00    0.103E+00
RMM:   2    -0.140694807925E+04   -0.13458E+00   -0.17480E+00  4991   0.117E+00    0.612E-01
RMM:   3    -0.140694694053E+04    0.11387E-02   -0.10992E-01  5299   0.288E-01    0.352E-01
RMM:   4    -0.140694599707E+04    0.94346E-03   -0.34026E-02  5248   0.145E-01    0.789E-02
RMM:   5    -0.140694532201E+04    0.67505E-03   -0.17311E-03  5018   0.373E-02    0.479E-02
RMM:   6    -0.140694533892E+04   -0.16910E-04   -0.19867E-03  5108   0.261E-02    0.254E-02
RMM:   7    -0.140694533765E+04    0.12719E-05   -0.84508E-05  4199   0.795E-03
   9 F= -.14069453E+04 E0= -.14069405E+04  d E =-.135101E+01
 curvature:  -2.55 expect dE=-0.149E+01 dE for cont linesearch -0.355E-02
 trial: gam= 0.35345 g(F)=  0.585E+00 g(S)=  0.000E+00 ort = 0.571E-01 (trialstep = 0.128E+01)
 search vector abs. value=  0.918E+00
 bond charge predicted
       N       E                     dE             d eps       ncg     rms          rms(c)
DAV:   1    -0.140748250914E+04   -0.53717E+00   -0.10433E+01  5280   0.293E+00    0.717E-01
RMM:   2    -0.140755434212E+04   -0.71833E-01   -0.85572E-01  4982   0.852E-01    0.459E-01
RMM:   3    -0.140755256108E+04    0.17810E-02   -0.50023E-02  5223   0.211E-01    0.271E-01
RMM:   4    -0.140755730615E+04   -0.47451E-02   -0.19029E-02  5342   0.105E-01    0.249E-01
RMM:   5    -0.140755170296E+04    0.56032E-02   -0.38210E-03  5075   0.368E-02    0.618E-02
RMM:   6    -0.140755141924E+04    0.28372E-03   -0.57439E-04  5237   0.173E-02    0.292E-02
RMM:   7    -0.140755145587E+04   -0.36630E-04   -0.47382E-04  4956   0.120E-02    0.119E-02
RMM:   8    -0.140755148136E+04   -0.25492E-04   -0.26078E-05  3279   0.471E-03    0.513E-03
RMM:   9    -0.140755152641E+04   -0.45052E-04   -0.20504E-05  3124   0.320E-03    0.375E-03
RMM:  10    -0.140755154799E+04   -0.21578E-04   -0.40277E-06  2984   0.184E-03    0.245E-03
RMM:  11    -0.140755158138E+04   -0.33386E-04   -0.90605E-06  3040   0.185E-03    0.211E-03
RMM:  12    -0.140755162114E+04   -0.39763E-04   -0.42164E-06  2382   0.128E-03    0.105E-03
RMM:  13    -0.140755164998E+04   -0.28836E-04   -0.37528E-06  2083   0.116E-03    0.587E-04
RMM:  14    -0.140755167245E+04   -0.22479E-04   -0.40988E-06  2115   0.110E-03    0.485E-04
RMM:  15    -0.140755167929E+04   -0.68334E-05   -0.78985E-07  1315   0.746E-04
  10 F= -.14075517E+04 E0= -.14075444E+04  d E =-.606342E+00
 trial-energy change:   -0.606342  1 .order   -0.602361   -0.775839   -0.428883
 step:   2.6688(harm=  2.8675)  dis= 0.05128  next Energy= -1407.788571 (dE=-0.843E+00)
 bond charge predicted
       N       E                     dE             d eps       ncg     rms          rms(c)
DAV:   1    -0.140772735393E+04   -0.17568E+00   -0.12288E+01  5120   0.319E+00    0.779E-01
RMM:   2    -0.140781159350E+04   -0.84240E-01   -0.10121E+00  4982   0.928E-01    0.499E-01
RMM:   3    -0.140780887655E+04    0.27169E-02   -0.58387E-02  5222   0.230E-01    0.291E-01
RMM:   4    -0.140780795054E+04    0.92601E-03   -0.21091E-02  5219   0.117E-01    0.685E-02
RMM:   5    -0.140780767660E+04    0.27394E-03   -0.10842E-03  5039   0.296E-02    0.376E-02
RMM:   6    -0.140780767156E+04    0.50485E-05   -0.10365E-03  5073   0.211E-02    0.175E-02
RMM:   7    -0.140780767547E+04   -0.39184E-05   -0.54429E-05  3807   0.618E-03
  11 F= -.14078077E+04 E0= -.14078002E+04  d E =-.862338E+00
 curvature:  -2.14 expect dE=-0.884E+00 dE for cont linesearch -0.224E-02
 trial: gam= 0.66601 g(F)=  0.413E+00 g(S)=  0.000E+00 ort = 0.310E-01 (trialstep = 0.156E+01)
 search vector abs. value=  0.861E+00
 bond charge predicted
       N       E                     dE             d eps       ncg     rms          rms(c)
DAV:   1    -0.140826928528E+04   -0.46161E+00   -0.12062E+01  5068   0.310E+00    0.847E-01
RMM:   2    -0.140833869894E+04   -0.69414E-01   -0.87529E-01  4994   0.846E-01    0.512E-01
RMM:   3    -0.140833757747E+04    0.11215E-02   -0.58805E-02  5266   0.218E-01    0.259E-01
RMM:   4    -0.140833712883E+04    0.44864E-03   -0.12264E-02  5381   0.959E-02    0.640E-02
RMM:   5    -0.140833725619E+04   -0.12737E-03   -0.10701E-03  5300   0.255E-02    0.602E-02
RMM:   6    -0.140833698059E+04    0.27561E-03   -0.34462E-04  5078   0.125E-02    0.259E-02
RMM:   7    -0.140833698041E+04    0.17436E-06   -0.15800E-04  4902   0.733E-03    0.918E-03
RMM:   8    -0.140833699787E+04   -0.17458E-04   -0.13101E-05  3020   0.333E-03    0.394E-03
RMM:   9    -0.140833702452E+04   -0.26650E-04   -0.90396E-06  3022   0.232E-03    0.207E-03
RMM:  10    -0.140833704073E+04   -0.16210E-04   -0.24908E-06  2663   0.146E-03    0.114E-03
RMM:  11    -0.140833705741E+04   -0.16679E-04   -0.14236E-06  1816   0.107E-03    0.892E-04
RMM:  12    -0.140833708262E+04   -0.25209E-04   -0.33402E-06  2069   0.117E-03    0.663E-04
RMM:  13    -0.140833709452E+04   -0.11904E-04   -0.10401E-06  1421   0.898E-04    0.398E-04
RMM:  14    -0.140833710943E+04   -0.14904E-04   -0.27573E-06  1739   0.103E-03    0.264E-04
RMM:  15    -0.140833711148E+04   -0.20554E-05   -0.35160E-07  1199   0.806E-04
  12 F= -.14083371E+04 E0= -.14083349E+04  d E =-.529436E+00
 trial-energy change:   -0.529436  1 .order   -0.525354   -0.675572   -0.375136
 step:   3.2261(harm=  3.5071)  dis= 0.04231  next Energy= -1408.542499 (dE=-0.735E+00)
 bond charge predicted
       N       E                     dE             d eps       ncg     rms          rms(c)
DAV:   1    -0.140847464046E+04   -0.13753E+00   -0.13844E+01  5040   0.333E+00    0.909E-01
RMM:   2    -0.140855410036E+04   -0.79460E-01   -0.10092E+00  4996   0.908E-01    0.548E-01
RMM:   3    -0.140855269095E+04    0.14094E-02   -0.67593E-02  5268   0.233E-01    0.278E-01
RMM:   4    -0.140855205967E+04    0.63128E-03   -0.14038E-02  5357   0.103E-01    0.610E-02
RMM:   5    -0.140855193975E+04    0.11992E-03   -0.91440E-04  5126   0.265E-02    0.284E-02
RMM:   6    -0.140855196610E+04   -0.26351E-04   -0.52665E-04  5098   0.155E-02    0.136E-02
RMM:   7    -0.140855197008E+04   -0.39791E-05   -0.34275E-05  3467   0.479E-03
  13 F= -.14085520E+04 E0= -.14085588E+04  d E =-.744295E+00
 curvature:  -3.41 expect dE=-0.200E+01 dE for cont linesearch -0.688E-03
 trial: gam= 1.36519 g(F)=  0.587E+00 g(S)=  0.000E+00 ort = 0.132E-01 (trialstep = 0.732E+00)
 search vector abs. value=  0.223E+01
 bond charge predicted
       N       E                     dE             d eps       ncg     rms          rms(c)
DAV:   1    -0.140889898566E+04   -0.34702E+00   -0.70361E+00  5104   0.238E+00    0.659E-01
RMM:   2    -0.140893196810E+04   -0.32982E-01   -0.44445E-01  4990   0.623E-01    0.393E-01
RMM:   3    -0.140893171539E+04    0.25271E-03   -0.34239E-02  5373   0.166E-01    0.191E-01
RMM:   4    -0.140893159096E+04    0.12443E-03   -0.59992E-03  5352   0.681E-02    0.383E-02
RMM:   5    -0.140893158899E+04    0.19693E-05   -0.53398E-04  5307   0.185E-02    0.291E-02
RMM:   6    -0.140893158505E+04    0.39435E-05   -0.15512E-04  5027   0.861E-03    0.211E-02
RMM:   7    -0.140893158165E+04    0.33980E-05   -0.39402E-05  3638   0.424E-03
  14 F= -.14089316E+04 E0= -.14089435E+04  d E =-.379612E+00
 trial-energy change:   -0.379612  1 .order   -0.379501   -0.442685   -0.316316
 step:   2.5630(harm=  2.5630)  dis= 0.07228  next Energy= -1409.327358 (dE=-0.775E+00)
 bond charge predicted
       N       E                     dE             d eps       ncg     rms          rms(c)
DAV:   1    -0.140908751888E+04   -0.15593E+00   -0.44150E+01  4960   0.598E+00    0.165E+00
RMM:   2    -0.140929779190E+04   -0.21027E+00   -0.27853E+00  4982   0.156E+00    0.987E-01
RMM:   3    -0.140929531624E+04    0.24757E-02   -0.21505E-01  5363   0.418E-01    0.472E-01
RMM:   4    -0.140929403921E+04    0.12770E-02   -0.37402E-02  5362   0.170E-01    0.956E-02
RMM:   5    -0.140929378618E+04    0.25303E-03   -0.30307E-03  5278   0.457E-02    0.530E-02
RMM:   6    -0.140929398200E+04   -0.19582E-03   -0.10467E-03  5330   0.228E-02    0.379E-02
RMM:   7    -0.140929394382E+04    0.38185E-04   -0.17077E-04  4880   0.807E-03    0.198E-02
RMM:   8    -0.140929397499E+04   -0.31176E-04   -0.27255E-05  3356   0.412E-03    0.104E-02
RMM:   9    -0.140929409967E+04   -0.12467E-03   -0.67358E-05  4152   0.483E-03    0.519E-03
RMM:  10    -0.140929415293E+04   -0.53259E-04   -0.11436E-05  3050   0.258E-03    0.283E-03
RMM:  11    -0.140929424653E+04   -0.93608E-04   -0.15012E-05  3096   0.218E-03    0.256E-03
RMM:  12    -0.140929430306E+04   -0.56522E-04   -0.59199E-06  2482   0.143E-03    0.189E-03
RMM:  13    -0.140929434788E+04   -0.44825E-04   -0.64055E-06  2716   0.141E-03    0.103E-03
RMM:  14    -0.140929439601E+04   -0.48133E-04   -0.60429E-06  1907   0.116E-03    0.619E-04
RMM:  15    -0.140929441100E+04   -0.14991E-04   -0.14461E-06  1492   0.884E-04    0.292E-04
RMM:  16    -0.140929442458E+04   -0.13572E-04   -0.14121E-06  1504   0.909E-04    0.259E-04
RMM:  17    -0.140929442868E+04   -0.41030E-05   -0.35713E-07  1174   0.783E-04
  15 F= -.14092944E+04 E0= -.14093126E+04  d E =-.742459E+00
 curvature:  -4.72 expect dE=-0.228E+01 dE for cont linesearch -0.587E-02
 trial: gam= 0.73250 g(F)=  0.483E+00 g(S)=  0.000E+00 ort =-0.527E-01 (trialstep = 0.110E+01)
 search vector abs. value=  0.160E+01
 bond charge predicted
       N       E                     dE             d eps       ncg     rms          rms(c)
DAV:   1    -0.140964240100E+04   -0.34798E+00   -0.13632E+01  4996   0.332E+00    0.905E-01
RMM:   2    -0.140970927824E+04   -0.66877E-01   -0.85743E-01  5002   0.885E-01    0.529E-01
RMM:   3    -0.140970816511E+04    0.11131E-02   -0.58953E-02  5295   0.228E-01    0.252E-01
RMM:   4    -0.140970808221E+04    0.82900E-04   -0.12912E-02  5349   0.976E-02    0.522E-02
RMM:   5    -0.140970786644E+04    0.21577E-03   -0.96245E-04  5234   0.256E-02    0.305E-02
RMM:   6    -0.140970787495E+04   -0.85096E-05   -0.36624E-04  5216   0.136E-02    0.122E-02
RMM:   7    -0.140970788030E+04   -0.53544E-05   -0.20122E-05  3159   0.412E-03
  16 F= -.14097079E+04 E0= -.14097289E+04  d E =-.413452E+00
 trial-energy change:   -0.413452  1 .order   -0.413663   -0.487902   -0.339424
 step:   3.6078(harm=  3.6078)  dis= 0.10689  next Energy= -1410.096059 (dE=-0.802E+00)
 bond charge predicted
       N       E                     dE             d eps       ncg     rms          rms(c)
DAV:   1    -0.140970228495E+04    0.55900E-02   -0.71439E+01  4992   0.757E+00    0.205E+00
RMM:   2    -0.141006316283E+04   -0.36088E+00   -0.45169E+00  5000   0.203E+00    0.121E+00
RMM:   3    -0.141005628591E+04    0.68769E-02   -0.31033E-01  5287   0.523E-01    0.569E-01
RMM:   4    -0.141005550020E+04    0.78571E-03   -0.66001E-02  5346   0.221E-01    0.125E-01
RMM:   5    -0.141005479021E+04    0.70999E-03   -0.52270E-03  5296   0.583E-02    0.949E-02
RMM:   6    -0.141005434837E+04    0.44184E-03   -0.22001E-03  5286   0.311E-02    0.522E-02
RMM:   7    -0.141005425524E+04    0.93124E-04   -0.29947E-04  5088   0.118E-02    0.204E-02
RMM:   8    -0.141005428567E+04   -0.30427E-04   -0.56529E-05  3824   0.587E-03    0.987E-03
RMM:   9    -0.141005435310E+04   -0.67426E-04   -0.30214E-05  3250   0.398E-03    0.370E-03
RMM:  10    -0.141005439774E+04   -0.44649E-04   -0.75330E-06  3051   0.236E-03    0.251E-03
RMM:  11    -0.141005443103E+04   -0.33283E-04   -0.35568E-06  2894   0.150E-03    0.202E-03
RMM:  12    -0.141005450105E+04   -0.70019E-04   -0.86936E-06  2588   0.152E-03    0.122E-03
RMM:  13    -0.141005452430E+04   -0.23250E-04   -0.18325E-06  1702   0.101E-03    0.769E-04
RMM:  14    -0.141005456130E+04   -0.37004E-04   -0.56621E-06  2263   0.125E-03    0.505E-04
RMM:  15    -0.141005456463E+04   -0.33322E-05   -0.33849E-07  1275   0.778E-04
  17 F= -.14100546E+04 E0= -.14100855E+04  d E =-.760136E+00
 curvature:  -6.50 expect dE=-0.239E+01 dE for cont linesearch -0.379E-02
 trial: gam= 0.58134 g(F)=  0.367E+00 g(S)=  0.000E+00 ort =-0.305E-01 (trialstep = 0.160E+01)
 search vector abs. value=  0.873E+00
 bond charge predicted
       N       E                     dE             d eps       ncg     rms          rms(c)
DAV:   1    -0.141021413839E+04   -0.15958E+00   -0.17880E+01  5112   0.387E+00    0.995E-01
RMM:   2    -0.141031957969E+04   -0.10544E+00   -0.12717E+00  4982   0.106E+00    0.618E-01
RMM:   3    -0.141031752168E+04    0.20580E-02   -0.78037E-02  5289   0.269E-01    0.327E-01
RMM:   4    -0.141031666150E+04    0.86019E-03   -0.21107E-02  5275   0.124E-01    0.578E-02
RMM:   5    -0.141031640922E+04    0.25227E-03   -0.13890E-03  5132   0.315E-02    0.294E-02
RMM:   6    -0.141031642850E+04   -0.19274E-04   -0.43093E-04  5411   0.155E-02    0.125E-02
RMM:   7    -0.141031642816E+04    0.33935E-06   -0.27447E-05  3332   0.461E-03
  18 F= -.14103164E+04 E0= -.14103563E+04  d E =-.261864E+00
 trial-energy change:   -0.261864  1 .order   -0.262033   -0.559379    0.035314
 step:   1.5049(harm=  1.5049)  dis= 0.03197  next Energy= -1410.317646 (dE=-0.263E+00)
 bond charge predicted
       N       E                     dE             d eps       ncg     rms          rms(c)
DAV:   1    -0.141031711160E+04   -0.68310E-03   -0.63341E-02  5712   0.230E-01    0.597E-02
RMM:   2    -0.141031748120E+04   -0.36960E-03   -0.44805E-03  4981   0.631E-02    0.370E-02
RMM:   3    -0.141031748340E+04   -0.22039E-05   -0.27251E-04  5254   0.160E-02    0.191E-02
RMM:   4    -0.141031749720E+04   -0.13793E-04   -0.71537E-05  4549   0.747E-03    0.741E-03
RMM:   5    -0.141031749291E+04    0.42841E-05   -0.10855E-05  3103   0.274E-03
  19 F= -.14103175E+04 E0= -.14103569E+04  d E =-.262928E+00
 curvature:  -1.88 expect dE=-0.213E+00 dE for cont linesearch -0.181E-06
 trial: gam= 0.25019 g(F)=  0.113E+00 g(S)=  0.000E+00 ort =-0.290E-03 (trialstep = 0.158E+01)
 search vector abs. value=  0.168E+00
 bond charge predicted
       N       E                     dE             d eps       ncg     rms          rms(c)
DAV:   1    -0.141043030397E+04   -0.11281E+00   -0.29759E+00  5136   0.157E+00    0.416E-01
RMM:   2    -0.141044794701E+04   -0.17643E-01   -0.22536E-01  4975   0.448E-01    0.258E-01
RMM:   3    -0.141044735868E+04    0.58833E-03   -0.14097E-02  5232   0.113E-01    0.130E-01
RMM:   4    -0.141044733073E+04    0.27946E-04   -0.39099E-03  5319   0.529E-02    0.271E-02
RMM:   5    -0.141044730047E+04    0.30260E-04   -0.27418E-04  5069   0.137E-02    0.146E-02
RMM:   6    -0.141044730824E+04   -0.77689E-05   -0.88854E-05  4816   0.674E-03
  20 F= -.14104473E+04 E0= -.14104856E+04  d E =-.129815E+00
 trial-energy change:   -0.129815  1 .order   -0.129495   -0.179161   -0.079829
 step:   2.8092(harm=  2.8514)  dis= 0.02064  next Energy= -1410.478471 (dE=-0.161E+00)
 bond charge predicted
       N       E                     dE             d eps       ncg     rms          rms(c)
DAV:   1    -0.141046820665E+04   -0.20906E-01   -0.18019E+00  5228   0.122E+00    0.325E-01
RMM:   2    -0.141047883593E+04   -0.10629E-01   -0.13690E-01  4975   0.349E-01    0.202E-01
RMM:   3    -0.141047849372E+04    0.34221E-03   -0.86253E-03  5229   0.881E-02    0.102E-01
RMM:   4    -0.141047850991E+04   -0.16195E-04   -0.24051E-03  5303   0.415E-02    0.244E-02
RMM:   5    -0.141047849314E+04    0.16776E-04   -0.18026E-04  5074   0.107E-02    0.176E-02
RMM:   6    -0.141047847440E+04    0.18737E-04   -0.84423E-05  4641   0.637E-03    0.804E-03
RMM:   7    -0.141047847642E+04   -0.20202E-05   -0.80802E-06  3011   0.254E-03
  21 F= -.14104785E+04 E0= -.14105156E+04  d E =-.160984E+00
 curvature:  -2.11 expect dE=-0.139E+00 dE for cont linesearch -0.410E-05
 trial: gam= 0.59317 g(F)=  0.657E-01 g(S)=  0.000E+00 ort =-0.571E-03 (trialstep = 0.183E+01)
 search vector abs. value=  0.124E+00
 bond charge predicted
       N       E                     dE             d eps       ncg     rms          rms(c)
DAV:   1    -0.141055649241E+04   -0.78018E-01   -0.23222E+00  4996   0.141E+00    0.375E-01
RMM:   2    -0.141056649665E+04   -0.10004E-01   -0.13662E-01  4988   0.354E-01    0.226E-01
RMM:   3    -0.141056617939E+04    0.31725E-03   -0.10679E-02  5376   0.946E-02    0.999E-02
RMM:   4    -0.141056614197E+04    0.37424E-04   -0.18201E-03  5353   0.382E-02    0.220E-02
RMM:   5    -0.141056613422E+04    0.77528E-05   -0.14264E-04  5018   0.102E-02    0.997E-03
RMM:   6    -0.141056614034E+04   -0.61218E-05   -0.34004E-05  3334   0.493E-03
  22 F= -.14105661E+04 E0= -.14106042E+04  d E =-.876639E-01
 trial-energy change:   -0.087664  1 .order   -0.088901   -0.119314   -0.058488
 step:   4.2882(harm=  3.5828)  dis= 0.03018  next Energy= -1410.602524 (dE=-0.124E+00)
 bond charge predicted
       N       E                     dE             d eps       ncg     rms          rms(c)
DAV:   1    -0.141057229525E+04   -0.61610E-02   -0.42177E+00  5000   0.190E+00    0.506E-01
RMM:   2    -0.141059047530E+04   -0.18180E-01   -0.24800E-01  4989   0.477E-01    0.305E-01
RMM:   3    -0.141058989130E+04    0.58400E-03   -0.19482E-02  5383   0.128E-01    0.134E-01
RMM:   4    -0.141058981475E+04    0.76546E-04   -0.33029E-03  5356   0.514E-02    0.302E-02
RMM:   5    -0.141058981116E+04    0.35936E-05   -0.27241E-04  5205   0.138E-02    0.177E-02
RMM:   6    -0.141058980684E+04    0.43137E-05   -0.74970E-05  4436   0.649E-03
  23 F= -.14105898E+04 E0= -.14106290E+04  d E =-.111330E+00
 curvature:  -2.85 expect dE=-0.335E+00 dE for cont linesearch -0.324E-02
 trial: gam= 1.93591 g(F)=  0.118E+00 g(S)=  0.000E+00 ort =-0.119E-01 (trialstep = 0.536E+00)
 search vector abs. value=  0.537E+00
 bond charge predicted
       N       E                     dE             d eps       ncg     rms          rms(c)
DAV:   1    -0.141063110759E+04   -0.41296E-01   -0.80602E-01  5244   0.811E-01    0.223E-01
RMM:   2    -0.141063403075E+04   -0.29232E-02   -0.41380E-02  5000   0.195E-01    0.132E-01
RMM:   3    -0.141063395701E+04    0.73746E-04   -0.35227E-03  5447   0.529E-02    0.526E-02
RMM:   4    -0.141063397429E+04   -0.17287E-04   -0.47099E-04  5426   0.194E-02    0.173E-02
RMM:   5    -0.141063395823E+04    0.16063E-04   -0.50908E-05  3743   0.572E-03    0.103E-02
RMM:   6    -0.141063395853E+04   -0.30389E-06   -0.14752E-05  3055   0.349E-03
  24 F= -.14106340E+04 E0= -.14106740E+04  d E =-.441517E-01
 ZBRENT: can't locate minimum, use default step
 trial-energy change:   -0.044152  1 .order   -0.044646   -0.050695   -0.038597
 step:   2.1448(harm=  2.2468)  dis= 0.02750  next Energy= -1410.696018 (dE=-0.106E+00)
 bond charge predicted
       N       E                     dE             d eps       ncg     rms          rms(c)
DAV:   1    -0.141066875966E+04   -0.34801E-01   -0.72575E+00  4944   0.243E+00    0.670E-01
RMM:   2    -0.141069508096E+04   -0.26321E-01   -0.37221E-01  4993   0.583E-01    0.395E-01
RMM:   3    -0.141069414775E+04    0.93321E-03   -0.31692E-02  5444   0.158E-01    0.156E-01
RMM:   4    -0.141069403173E+04    0.11602E-03   -0.39725E-03  5404   0.574E-02    0.350E-02
RMM:   5    -0.141069402467E+04    0.70630E-05   -0.34658E-04  5318   0.160E-02    0.159E-02
RMM:   6    -0.141069403980E+04   -0.15132E-04   -0.74964E-05  4653   0.703E-03    0.651E-03
RMM:   7    -0.141069404580E+04   -0.59994E-05   -0.86991E-06  3047   0.266E-03
  25 F= -.14106940E+04 E0= -.14107360E+04  d E =-.104239E+00
 curvature:  -6.35 expect dE=-0.495E+00 dE for cont linesearch -0.696E-04
 trial: gam= 0.30048 g(F)=  0.779E-01 g(S)=  0.000E+00 ort = 0.242E-02 (trialstep = 0.858E+00)
 search vector abs. value=  0.128E+00
 bond charge predicted
       N       E                     dE             d eps       ncg     rms          rms(c)
DAV:   1    -0.141074869431E+04   -0.54655E-01   -0.65512E-01  5280   0.762E-01    0.212E-01
RMM:   2    -0.141075199651E+04   -0.33022E-02   -0.43536E-02  4990   0.204E-01    0.132E-01
RMM:   3    -0.141075184253E+04    0.15398E-03   -0.31061E-03  5286   0.526E-02    0.579E-02
RMM:   4    -0.141075186213E+04   -0.19604E-04   -0.65099E-04  5294   0.215E-02    0.154E-02
RMM:   5    -0.141075186660E+04   -0.44673E-05   -0.65532E-05  3850   0.632E-03
  26 F= -.14107519E+04 E0= -.14107937E+04  d E =-.578208E-01
 trial-energy change:   -0.057821  1 .order   -0.057789   -0.067435   -0.048144
 step:   2.9990(harm=  2.9990)  dis= 0.02136  next Energy= -1410.811909 (dE=-0.118E+00)
 bond charge predicted
       N       E                     dE             d eps       ncg     rms          rms(c)
DAV:   1    -0.141079485166E+04   -0.42990E-01   -0.40844E+00  5008   0.190E+00    0.530E-01
RMM:   2    -0.141081563068E+04   -0.20779E-01   -0.27257E-01  4986   0.511E-01    0.330E-01
RMM:   3    -0.141081452743E+04    0.11032E-02   -0.19841E-02  5299   0.132E-01    0.145E-01
RMM:   4    -0.141081455223E+04   -0.24803E-04   -0.39826E-03  5348   0.532E-02    0.383E-02
RMM:   5    -0.141081456254E+04   -0.10315E-04   -0.40214E-04  5246   0.152E-02    0.288E-02
RMM:   6    -0.141081449052E+04    0.72029E-04   -0.17129E-04  4980   0.862E-03    0.887E-03
RMM:   7    -0.141081449160E+04   -0.10887E-05   -0.10632E-05  3050   0.299E-03
  27 F= -.14108145E+04 E0= -.14108562E+04  d E =-.120446E+00
 curvature:  -2.44 expect dE=-0.158E+00 dE for cont linesearch -0.966E-04
 trial: gam= 0.83416 g(F)=  0.648E-01 g(S)=  0.000E+00 ort = 0.225E-02 (trialstep = 0.104E+01)
 search vector abs. value=  0.158E+00
 bond charge predicted
       N       E                     dE             d eps       ncg     rms          rms(c)
DAV:   1    -0.141086771808E+04   -0.53228E-01   -0.11951E+00  5020   0.101E+00    0.292E-01
RMM:   2    -0.141087339964E+04   -0.56816E-02   -0.75769E-02  4988   0.268E-01    0.177E-01
RMM:   3    -0.141087318056E+04    0.21908E-03   -0.56113E-03  5303   0.705E-02    0.738E-02
RMM:   4    -0.141087318440E+04   -0.38318E-05   -0.10707E-03  5338   0.286E-02    0.172E-02
RMM:   5    -0.141087317747E+04    0.69253E-05   -0.95900E-05  4654   0.799E-03
  28 F= -.14108732E+04 E0= -.14109151E+04  d E =-.586859E-01
 ZBRENT: can't locate minimum, use default step
 trial-energy change:   -0.058686  1 .order   -0.058949   -0.069612   -0.048286
 step:   4.1734(harm=  3.4057)  dis= 0.03810  next Energy= -1410.943951 (dE=-0.129E+00)
 bond charge predicted
       N       E                     dE             d eps       ncg     rms          rms(c)
DAV:   1    -0.141087221496E+04    0.96943E-03   -0.10750E+01  4968   0.304E+00    0.880E-01
RMM:   2    -0.141092376984E+04   -0.51555E-01   -0.68322E-01  4988   0.804E-01    0.532E-01
RMM:   3    -0.141092145974E+04    0.23101E-02   -0.51010E-02  5318   0.212E-01    0.222E-01
RMM:   4    -0.141092145241E+04    0.73324E-05   -0.96870E-03  5364   0.854E-02    0.574E-02
RMM:   5    -0.141092136742E+04    0.84993E-04   -0.86184E-04  5313   0.234E-02    0.415E-02
RMM:   6    -0.141092125178E+04    0.11564E-03   -0.37924E-04  5081   0.131E-02    0.176E-02
RMM:   7    -0.141092124478E+04    0.69917E-05   -0.37369E-05  3542   0.468E-03
  29 F= -.14109212E+04 E0= -.14109635E+04  d E =-.106753E+00
 curvature:  -3.60 expect dE=-0.350E+00 dE for cont linesearch -0.496E-02
 ZBRENT: interpolating
 opt :   3.4175  next Energy= -1410.926813 (dE=-0.112E+00)
 bond charge predicted
       N       E                     dE             d eps       ncg     rms          rms(c)
DAV:   1    -0.141092420871E+04   -0.29569E-02   -0.62808E-01  5120   0.736E-01    0.213E-01
RMM:   2    -0.141092718095E+04   -0.29722E-02   -0.40039E-02  4989   0.195E-01    0.129E-01
RMM:   3    -0.141092706532E+04    0.11563E-03   -0.29703E-03  5298   0.512E-02    0.536E-02
RMM:   4    -0.141092707095E+04   -0.56268E-05   -0.56187E-04  5313   0.209E-02    0.125E-02
RMM:   5    -0.141092706495E+04    0.59984E-05   -0.48284E-05  3512   0.597E-03
  30 F= -.14109271E+04 E0= -.14109693E+04  d E =-.112573E+00
 curvature:  -4.04 expect dE=-0.248E+00 dE for cont linesearch -0.254E-05
 trial: gam= 1.01878 g(F)=  0.615E-01 g(S)=  0.000E+00 ort = 0.315E-03 (trialstep = 0.106E+01)
 search vector abs. value=  0.226E+00
 bond charge predicted
       N       E                     dE             d eps       ncg     rms          rms(c)
DAV:   1    -0.141097007282E+04   -0.43002E-01   -0.17135E+00  4964   0.120E+00    0.350E-01
RMM:   2    -0.141097790265E+04   -0.78298E-02   -0.10570E-01  4980   0.314E-01    0.211E-01
RMM:   3    -0.141097759856E+04    0.30409E-03   -0.82123E-03  5374   0.840E-02    0.853E-02
RMM:   4    -0.141097767856E+04   -0.79997E-04   -0.14420E-03  5431   0.324E-02    0.313E-02
RMM:   5    -0.141097759152E+04    0.87038E-04   -0.15248E-04  4952   0.939E-03    0.160E-02
RMM:   6    -0.141097758027E+04    0.11247E-04   -0.67735E-05  4545   0.593E-03    0.527E-03
RMM:   7    -0.141097758198E+04   -0.17090E-05   -0.46759E-06  3007   0.222E-03
  31 F= -.14109776E+04 E0= -.14110192E+04  d E =-.505170E-01
 trial-energy change:   -0.050517  1 .order   -0.051024   -0.065499   -0.036550
 step:   2.9530(harm=  2.3983)  dis= 0.03194  next Energy= -1411.007329 (dE=-0.803E-01)
 bond charge predicted
       N       E                     dE             d eps       ncg     rms          rms(c)
DAV:   1    -0.141097690762E+04    0.67265E-03   -0.54640E+00  4968   0.215E+00    0.627E-01
RMM:   2    -0.141100204090E+04   -0.25133E-01   -0.33706E-01  4977   0.560E-01    0.378E-01
RMM:   3    -0.141100089267E+04    0.11482E-02   -0.26144E-02  5372   0.150E-01    0.151E-01
RMM:   4    -0.141100086510E+04    0.27571E-04   -0.43171E-03  5370   0.573E-02    0.329E-02
RMM:   5    -0.141100083877E+04    0.26333E-04   -0.39641E-04  5203   0.165E-02    0.119E-02
RMM:   6    -0.141100084965E+04   -0.10888E-04   -0.69480E-05  4097   0.688E-03    0.616E-03
RMM:   7    -0.141100085029E+04   -0.63698E-06   -0.95763E-06  3049   0.292E-03
  32 F= -.14110009E+04 E0= -.14110413E+04  d E =-.737853E-01
 curvature:  -3.63 expect dE=-0.228E+00 dE for cont linesearch -0.156E-02
 trial: gam= 1.18174 g(F)=  0.628E-01 g(S)=  0.000E+00 ort =-0.984E-02 (trialstep = 0.915E+00)
 search vector abs. value=  0.355E+00
 bond charge predicted
       N       E                     dE             d eps       ncg     rms          rms(c)
DAV:   1    -0.141103496188E+04   -0.34112E-01   -0.17305E+00  5056   0.119E+00    0.362E-01
RMM:   2    -0.141104149249E+04   -0.65306E-02   -0.96316E-02  4972   0.297E-01    0.208E-01
RMM:   3    -0.141104113988E+04    0.35261E-03   -0.82383E-03  5388   0.823E-02    0.732E-02
RMM:   4    -0.141104114873E+04   -0.88581E-05   -0.11203E-03  5462   0.295E-02    0.190E-02
RMM:   5    -0.141104114712E+04    0.16144E-05   -0.12752E-04  4877   0.886E-03    0.649E-03
RMM:   6    -0.141104115032E+04   -0.32019E-05   -0.16016E-05  3110   0.362E-03
  33 F= -.14110412E+04 E0= -.14110813E+04  d E =-.403000E-01
 trial-energy change:   -0.040300  1 .order   -0.041002   -0.046866   -0.035137
 step:   3.6568(harm=  3.6568)  dis= 0.05428  next Energy= -1411.094487 (dE=-0.936E-01)
 bond charge predicted
       N       E                     dE             d eps       ncg     rms          rms(c)
DAV:   1    -0.141103964798E+04    0.14991E-02   -0.15530E+01  4992   0.356E+00    0.109E+00
RMM:   2    -0.141109838355E+04   -0.58736E-01   -0.86511E-01  4972   0.889E-01    0.625E-01
RMM:   3    -0.141109478624E+04    0.35973E-02   -0.73599E-02  5391   0.246E-01    0.219E-01
RMM:   4    -0.141109480465E+04   -0.18404E-04   -0.10048E-02  5479   0.877E-02    0.579E-02
RMM:   5    -0.141109484387E+04   -0.39227E-04   -0.11547E-03  5331   0.260E-02    0.342E-02
RMM:   6    -0.141109475803E+04    0.85844E-04   -0.23418E-04  5153   0.108E-02    0.156E-02
RMM:   7    -0.141109476454E+04   -0.65109E-05   -0.38538E-05  3513   0.480E-03
  34 F= -.14110948E+04 E0= -.14111338E+04  d E =-.939142E-01
 curvature: -12.66 expect dE=-0.120E+01 dE for cont linesearch -0.105E-03
 trial: gam= 1.02812 g(F)=  0.950E-01 g(S)=  0.000E+00 ort =-0.172E-02 (trialstep = 0.111E+01)
 search vector abs. value=  0.466E+00
 bond charge predicted
       N       E                     dE             d eps       ncg     rms          rms(c)
DAV:   1    -0.141116429289E+04   -0.69535E-01   -0.32726E+00  5068   0.164E+00    0.488E-01
RMM:   2    -0.141117851589E+04   -0.14223E-01   -0.20081E-01  4977   0.427E-01    0.285E-01
RMM:   3    -0.141117774311E+04    0.77277E-03   -0.15704E-02  5331   0.114E-01    0.111E-01
RMM:   4    -0.141117774486E+04   -0.17486E-05   -0.24832E-03  5417   0.434E-02    0.280E-02
RMM:   5    -0.141117773870E+04    0.61605E-05   -0.25315E-04  5136   0.127E-02    0.108E-02
RMM:   6    -0.141117775142E+04   -0.12716E-04   -0.44308E-05  3595   0.531E-03    0.804E-03
RMM:   7    -0.141117775308E+04   -0.16684E-05   -0.75214E-06  3021   0.262E-03
  35 F= -.14111778E+04 E0= -.14112166E+04  d E =-.829885E-01
 trial-energy change:   -0.082989  1 .order   -0.083146   -0.103798   -0.062494
 step:   2.7966(harm=  2.7966)  dis= 0.04779  next Energy= -1411.225189 (dE=-0.130E+00)
 bond charge predicted
       N       E                     dE             d eps       ncg     rms          rms(c)
DAV:   1    -0.141119287039E+04   -0.15119E-01   -0.74962E+00  4976   0.248E+00    0.739E-01
RMM:   2    -0.141122531710E+04   -0.32447E-01   -0.45828E-01  4984   0.645E-01    0.431E-01
RMM:   3    -0.141122344327E+04    0.18738E-02   -0.35606E-02  5344   0.173E-01    0.168E-01
RMM:   4    -0.141122340924E+04    0.34028E-04   -0.56149E-03  5432   0.652E-02    0.420E-02
RMM:   5    -0.141122337439E+04    0.34856E-04   -0.55251E-04  5171   0.189E-02    0.154E-02
RMM:   6    -0.141122339871E+04   -0.24321E-04   -0.10523E-04  4703   0.784E-03    0.119E-02
RMM:   7    -0.141122339476E+04    0.39488E-05   -0.14624E-05  3123   0.324E-03
  36 F= -.14112234E+04 E0= -.14112617E+04  d E =-.128630E+00
 curvature:  -6.99 expect dE=-0.450E+00 dE for cont linesearch -0.442E-06
 trial: gam= 0.72840 g(F)=  0.644E-01 g(S)=  0.000E+00 ort =-0.172E-03 (trialstep = 0.145E+01)
 search vector abs. value=  0.312E+00
 bond charge predicted
       N       E                     dE             d eps       ncg     rms          rms(c)
DAV:   1    -0.141128626038E+04   -0.62862E-01   -0.32568E+00  5088   0.160E+00    0.473E-01
RMM:   2    -0.141129992730E+04   -0.13667E-01   -0.19399E-01  4995   0.407E-01    0.274E-01
RMM:   3    -0.141129925399E+04    0.67331E-03   -0.14888E-02  5318   0.108E-01    0.111E-01
RMM:   4    -0.141129921715E+04    0.36839E-04   -0.24463E-03  5461   0.428E-02    0.265E-02
RMM:   5    -0.141129921429E+04    0.28558E-05   -0.18138E-04  5112   0.113E-02    0.160E-02
RMM:   6    -0.141129922300E+04   -0.87136E-05   -0.61632E-05  4008   0.569E-03
  37 F= -.14112992E+04 E0= -.14113369E+04  d E =-.758282E-01
 trial-energy change:   -0.075828  1 .order   -0.075758   -0.093209   -0.058307
 step:   3.8712(harm=  3.8712)  dis= 0.05760  next Energy= -1411.347855 (dE=-0.124E+00)
 bond charge predicted
       N       E                     dE             d eps       ncg     rms          rms(c)
DAV:   1    -0.141130788291E+04   -0.86686E-02   -0.90877E+00  4952   0.266E+00    0.793E-01
RMM:   2    -0.141134603331E+04   -0.38150E-01   -0.54201E-01  5001   0.680E-01    0.460E-01
RMM:   3    -0.141134398333E+04    0.20500E-02   -0.41266E-02  5320   0.181E-01    0.185E-01
RMM:   4    -0.141134388613E+04    0.97195E-04   -0.68481E-03  5471   0.713E-02    0.480E-02
RMM:   5    -0.141134390202E+04   -0.15887E-04   -0.59346E-04  5364   0.190E-02    0.379E-02
RMM:   6    -0.141134381406E+04    0.87959E-04   -0.19909E-04  4984   0.958E-03    0.165E-02
RMM:   7    -0.141134383077E+04   -0.16706E-04   -0.37750E-05  3602   0.442E-03    0.643E-03
RMM:   8    -0.141134385331E+04   -0.22540E-04   -0.82731E-06  3014   0.261E-03    0.274E-03
RMM:   9    -0.141134387493E+04   -0.21619E-04   -0.37912E-06  2923   0.171E-03    0.152E-03
RMM:  10    -0.141134389345E+04   -0.18522E-04   -0.15833E-06  1944   0.118E-03    0.102E-03
RMM:  11    -0.141134391237E+04   -0.18926E-04   -0.18115E-06  1900   0.111E-03    0.706E-04
RMM:  12    -0.141134393209E+04   -0.19714E-04   -0.25689E-06  2006   0.110E-03    0.487E-04
RMM:  13    -0.141134394457E+04   -0.12479E-04   -0.12652E-06  1520   0.916E-04    0.267E-04
RMM:  14    -0.141134395179E+04   -0.72247E-05   -0.10234E-06  1469   0.877E-04
  38 F= -.14113440E+04 E0= -.14113801E+04  d E =-.120557E+00
 curvature:  -9.38 expect dE=-0.119E+01 dE for cont linesearch -0.195E-03
 trial: gam= 2.10040 g(F)=  0.127E+00 g(S)=  0.000E+00 ort =-0.254E-02 (trialstep = 0.404E+00)
 search vector abs. value=  0.149E+01
 bond charge predicted
       N       E                     dE             d eps       ncg     rms          rms(c)
DAV:   1    -0.141138557066E+04   -0.41626E-01   -0.10973E+00  5128   0.901E-01    0.272E-01
RMM:   2    -0.141138929623E+04   -0.37256E-02   -0.57165E-02  4976   0.216E-01    0.153E-01
RMM:   3    -0.141138912939E+04    0.16684E-03   -0.50554E-03  5411   0.599E-02    0.567E-02
RMM:   4    -0.141138912126E+04    0.81324E-05   -0.62748E-04  5467   0.216E-02    0.141E-02
RMM:   5    -0.141138911777E+04    0.34901E-05   -0.48809E-05  3745   0.610E-03
  39 F= -.14113891E+04 E0= -.14114247E+04  d E =-.451660E-01
 ZBRENT: can't locate minimum, use default step
 trial-energy change:   -0.045166  1 .order   -0.045711   -0.049025   -0.042396
 step:   1.6171(harm=  2.9901)  dis= 0.05622  next Energy= -1411.525249 (dE=-0.181E+00)
 bond charge predicted
       N       E                     dE             d eps       ncg     rms          rms(c)
DAV:   1    -0.141145630581E+04   -0.67185E-01   -0.98733E+00  4952   0.270E+00    0.818E-01
RMM:   2    -0.141149021990E+04   -0.33914E-01   -0.51697E-01  4972   0.650E-01    0.460E-01
RMM:   3    -0.141148859177E+04    0.16281E-02   -0.45757E-02  5412   0.180E-01    0.171E-01
RMM:   4    -0.141148859181E+04   -0.42426E-07   -0.57946E-03  5530   0.651E-02    0.509E-02
RMM:   5    -0.141148861307E+04   -0.21258E-04   -0.64837E-04  5465   0.184E-02    0.421E-02
RMM:   6    -0.141148848353E+04    0.12954E-03   -0.21264E-04  4978   0.979E-03    0.129E-02
RMM:   7    -0.141148850252E+04   -0.18988E-04   -0.20610E-05  3226   0.365E-03    0.563E-03
RMM:   8    -0.141148852399E+04   -0.21473E-04   -0.83942E-06  3031   0.248E-03    0.238E-03
RMM:   9    -0.141148854024E+04   -0.16252E-04   -0.27739E-06  2587   0.155E-03    0.146E-03
RMM:  10    -0.141148856062E+04   -0.20373E-04   -0.21813E-06  2122   0.123E-03    0.921E-04
RMM:  11    -0.141148858406E+04   -0.23440E-04   -0.29091E-06  2089   0.115E-03    0.554E-04
RMM:  12    -0.141148860071E+04   -0.16656E-04   -0.22208E-06  1818   0.102E-03    0.323E-04
RMM:  13    -0.141148860862E+04   -0.79122E-05   -0.93404E-07  1424   0.860E-04
  40 F= -.14114886E+04 E0= -.14115221E+04  d E =-.144657E+00
 curvature: -13.20 expect dE=-0.116E+01 dE for cont linesearch -0.331E-01
 ZBRENT: increasing intervall
 opt :   4.0427  next Energy= -1411.530986 (dE=-0.187E+00)
 bond charge predicted
       N       E                     dE             d eps       ncg     rms          rms(c)
DAV:   1    -0.141138610418E+04    0.10250E+00   -0.39433E+01  4960   0.538E+00    0.164E+00
RMM:   2    -0.141152410010E+04   -0.13800E+00   -0.20888E+00  4972   0.130E+00    0.923E-01
RMM:   3    -0.141151671634E+04    0.73838E-02   -0.18091E-01  5399   0.359E-01    0.346E-01
RMM:   4    -0.141151620377E+04    0.51256E-03   -0.23880E-02  5476   0.132E-01    0.847E-02
RMM:   5    -0.141151611517E+04    0.88601E-04   -0.20181E-03  5338   0.366E-02    0.346E-02
RMM:   6    -0.141151621380E+04   -0.98629E-04   -0.44634E-04  5491   0.158E-02    0.221E-02
RMM:   7    -0.141151620247E+04    0.11334E-04   -0.56175E-05  3764   0.517E-03    0.116E-02
RMM:   8    -0.141151624371E+04   -0.41243E-04   -0.33029E-05  3426   0.418E-03    0.495E-03
RMM:   9    -0.141151628447E+04   -0.40756E-04   -0.72762E-06  3036   0.237E-03    0.260E-03
RMM:  10    -0.141151631967E+04   -0.35199E-04   -0.34478E-06  2774   0.152E-03    0.183E-03
RMM:  11    -0.141151638144E+04   -0.61779E-04   -0.72817E-06  2633   0.149E-03    0.106E-03
RMM:  12    -0.141151641393E+04   -0.32489E-04   -0.30437E-06  1857   0.109E-03    0.680E-04
RMM:  13    -0.141151643410E+04   -0.20172E-04   -0.18633E-06  1712   0.999E-04    0.378E-04
RMM:  14    -0.141151644642E+04   -0.12315E-04   -0.13987E-06  1628   0.931E-04    0.277E-04
RMM:  15    -0.141151645400E+04   -0.75764E-05   -0.67322E-07  1368   0.834E-04
  41 F= -.14115165E+04 E0= -.14115460E+04  d E =-.172502E+00
 curvature: -16.88 expect dE=-0.369E+01 dE for cont linesearch -0.161E-01
 ZBRENT: bracketing found
 ZBRENT: interpolating
 opt :   3.1172  next Energy= -1411.533922 (dE=-0.190E+00)
 bond charge predicted
       N       E                     dE             d eps       ncg     rms          rms(c)
DAV:   1    -0.141151639473E+04    0.51687E-04   -0.57717E+00  4972   0.206E+00    0.626E-01
RMM:   2    -0.141153610093E+04   -0.19706E-01   -0.30181E-01  4976   0.498E-01    0.353E-01
RMM:   3    -0.141153501205E+04    0.10889E-02   -0.26010E-02  5391   0.137E-01    0.133E-01
RMM:   4    -0.141153495532E+04    0.56722E-04   -0.35283E-03  5424   0.511E-02    0.321E-02
RMM:   5    -0.141153495247E+04    0.28529E-05   -0.34836E-04  5327   0.145E-02    0.133E-02
RMM:   6    -0.141153496009E+04   -0.76176E-05   -0.50450E-05  3660   0.585E-03
  42 F= -.14115350E+04 E0= -.14115659E+04  d E =-.191008E+00
 curvature: -18.28 expect dE=-0.257E+01 dE for cont linesearch -0.117E-04
 trial: gam= 0.78213 g(F)=  0.141E+00 g(S)=  0.000E+00 ort = 0.978E-03 (trialstep = 0.947E+00)
 search vector abs. value=  0.105E+01
 bond charge predicted
       N       E                     dE             d eps       ncg     rms          rms(c)
DAV:   1    -0.141163579051E+04   -0.10084E+00   -0.42304E+00  4976   0.176E+00    0.517E-01
RMM:   2    -0.141165139345E+04   -0.15603E-01   -0.22780E-01  4992   0.428E-01    0.292E-01
RMM:   3    -0.141165075891E+04    0.63453E-03   -0.18312E-02  5406   0.115E-01    0.120E-01
RMM:   4    -0.141165097389E+04   -0.21498E-03   -0.29546E-03  5447   0.444E-02    0.590E-02
RMM:   5    -0.141165062017E+04    0.35372E-03   -0.36944E-04  5173   0.132E-02    0.227E-02
RMM:   6    -0.141165059998E+04    0.20194E-04   -0.81567E-05  4559   0.680E-03    0.877E-03
RMM:   7    -0.141165060245E+04   -0.24695E-05   -0.10008E-05  3025   0.290E-03
  43 F= -.14116506E+04 E0= -.14116790E+04  d E =-.115642E+00
 trial-energy change:   -0.115642  1 .order   -0.116156   -0.133996   -0.098317
 step:   3.5560(harm=  3.5560)  dis= 0.11677  next Energy= -1411.786579 (dE=-0.252E+00)
 bond charge predicted
       N       E                     dE             d eps       ncg     rms          rms(c)
DAV:   1    -0.141167716613E+04   -0.26566E-01   -0.31946E+01  4984   0.482E+00    0.142E+00
RMM:   2    -0.141179760221E+04   -0.12044E+00   -0.17392E+00  4984   0.118E+00    0.804E-01
RMM:   3    -0.141179228830E+04    0.53139E-02   -0.13908E-01  5409   0.317E-01    0.328E-01
RMM:   4    -0.141179125263E+04    0.10357E-02   -0.19955E-02  5355   0.120E-01    0.697E-02
RMM:   5    -0.141179123885E+04    0.13780E-04   -0.14591E-03  5404   0.317E-02    0.362E-02
RMM:   6    -0.141179131973E+04   -0.80882E-04   -0.39845E-04  5280   0.144E-02    0.301E-02
RMM:   7    -0.141179126800E+04    0.51729E-04   -0.66568E-05  4021   0.545E-03    0.942E-03
RMM:   8    -0.141179129894E+04   -0.30941E-04   -0.25074E-05  3267   0.369E-03    0.394E-03
RMM:   9    -0.141179132538E+04   -0.26443E-04   -0.56892E-06  3010   0.218E-03    0.235E-03
RMM:  10    -0.141179135723E+04   -0.31844E-04   -0.38488E-06  2783   0.154E-03    0.158E-03
RMM:  11    -0.141179139479E+04   -0.37568E-04   -0.36735E-06  2117   0.125E-03    0.869E-04
RMM:  12    -0.141179141752E+04   -0.22728E-04   -0.22562E-06  1899   0.109E-03    0.594E-04
RMM:  13    -0.141179143209E+04   -0.14572E-04   -0.15423E-06  1693   0.960E-04    0.355E-04
RMM:  14    -0.141179144208E+04   -0.99820E-05   -0.11125E-06  1530   0.883E-04
  44 F= -.14117914E+04 E0= -.14118137E+04  d E =-.256482E+00
 curvature: -13.24 expect dE=-0.335E+01 dE for cont linesearch -0.178E-04
 trial: gam= 1.76050 g(F)=  0.253E+00 g(S)=  0.000E+00 ort = 0.119E-02 (trialstep = 0.439E+00)
 search vector abs. value=  0.352E+01
 bond charge predicted
       N       E                     dE             d eps       ncg     rms          rms(c)
DAV:   1    -0.141188794154E+04   -0.96509E-01   -0.29403E+00  5184   0.144E+00    0.434E-01
RMM:   2    -0.141189816615E+04   -0.10225E-01   -0.15190E-01  4987   0.343E-01    0.242E-01
RMM:   3    -0.141189773573E+04    0.43042E-03   -0.12573E-02  5456   0.936E-02    0.942E-02
RMM:   4    -0.141189766294E+04    0.72791E-04   -0.16022E-03  5389   0.342E-02    0.205E-02
RMM:   5    -0.141189765980E+04    0.31382E-05   -0.12072E-04  4753   0.920E-03    0.107E-02
RMM:   6    -0.141189766566E+04   -0.58619E-05   -0.27398E-05  3282   0.458E-03
  45 F= -.14118977E+04 E0= -.14119182E+04  d E =-.106224E+00
 ZBRENT: can't locate minimum, use default step
 trial-energy change:   -0.106224  1 .order   -0.106084   -0.111947   -0.100222
 step:   1.7573(harm=  4.1945)  dis= 0.11379  next Energy= -1412.325856 (dE=-0.534E+00)
 bond charge predicted
       N       E                     dE             d eps       ncg     rms          rms(c)
DAV:   1    -0.141205172035E+04   -0.15406E+00   -0.26301E+01  4944   0.431E+00    0.130E+00
RMM:   2    -0.141214493170E+04   -0.93211E-01   -0.13731E+00  4984   0.103E+00    0.727E-01
RMM:   3    -0.141214053202E+04    0.43997E-02   -0.11212E-01  5453   0.281E-01    0.284E-01
RMM:   4    -0.141213993336E+04    0.59866E-03   -0.14561E-02  5400   0.102E-01    0.727E-02
RMM:   5    -0.141214010648E+04   -0.17312E-03   -0.15568E-03  5596   0.288E-02    0.656E-02
RMM:   6    -0.141213975595E+04    0.35053E-03   -0.39348E-04  5010   0.130E-02    0.265E-02
RMM:   7    -0.141213978361E+04   -0.27658E-04   -0.74974E-05  4204   0.612E-03    0.102E-02
RMM:   8    -0.141213982085E+04   -0.37240E-04   -0.15331E-05  3126   0.320E-03    0.403E-03
RMM:   9    -0.141213985936E+04   -0.38510E-04   -0.68325E-06  3051   0.213E-03    0.241E-03
RMM:  10    -0.141213991320E+04   -0.53843E-04   -0.63651E-06  2883   0.165E-03    0.152E-03
RMM:  11    -0.141213995553E+04   -0.42326E-04   -0.38603E-06  2118   0.125E-03    0.829E-04
RMM:  12    -0.141213998404E+04   -0.28509E-04   -0.31518E-06  2018   0.114E-03    0.496E-04
RMM:  13    -0.141213999611E+04   -0.12070E-04   -0.11309E-06  1625   0.923E-04    0.335E-04
RMM:  14    -0.141214000845E+04   -0.12343E-04   -0.10466E-06  1550   0.877E-04    0.224E-04
RMM:  15    -0.141214001508E+04   -0.66289E-05   -0.45627E-07  1299   0.797E-04
  46 F= -.14121400E+04 E0= -.14121586E+04  d E =-.348573E+00
 curvature: -16.79 expect dE=-0.246E+01 dE for cont linesearch -0.889E-01
 ZBRENT: increasing intervall
 opt :   4.3932  next Energy= -1412.258778 (dE=-0.467E+00)
 bond charge predicted
       N       E                     dE             d eps       ncg     rms          rms(c)
DAV:   1    -0.141181930927E+04    0.32070E+00   -0.10393E+02  4944   0.854E+00    0.259E+00
RMM:   2    -0.141220933022E+04   -0.39002E+00   -0.56310E+00  4981   0.206E+00    0.145E+00
RMM:   3    -0.141219073084E+04    0.18599E-01   -0.44452E-01  5438   0.561E-01    0.574E-01
RMM:   4    -0.141218734178E+04    0.33891E-02   -0.58104E-02  5402   0.204E-01    0.129E-01
RMM:   5    -0.141218716699E+04    0.17479E-03   -0.44245E-03  5451   0.548E-02    0.651E-02
RMM:   6    -0.141218726641E+04   -0.99421E-04   -0.96132E-04  5284   0.242E-02    0.276E-02
RMM:   7    -0.141218735755E+04   -0.91141E-04   -0.15012E-04  4718   0.832E-03    0.194E-02
RMM:   8    -0.141218738615E+04   -0.28598E-04   -0.42978E-05  3617   0.457E-03    0.836E-03
RMM:   9    -0.141218748364E+04   -0.97490E-04   -0.14065E-05  3125   0.284E-03    0.486E-03
RMM:  10    -0.141218761129E+04   -0.12766E-03   -0.13817E-05  3140   0.225E-03    0.316E-03
RMM:  11    -0.141218775892E+04   -0.14763E-03   -0.17662E-05  3036   0.206E-03    0.179E-03
RMM:  12    -0.141218783124E+04   -0.72325E-04   -0.67710E-06  2276   0.138E-03    0.988E-04
RMM:  13    -0.141218786909E+04   -0.37849E-04   -0.28206E-06  1925   0.111E-03    0.685E-04
RMM:  14    -0.141218789516E+04   -0.26067E-04   -0.15600E-06  1657   0.977E-04    0.469E-04
RMM:  15    -0.141218791994E+04   -0.24780E-04   -0.16989E-06  1755   0.975E-04    0.243E-04
RMM:  16    -0.141218792824E+04   -0.82980E-05   -0.54762E-07  1377   0.823E-04
  47 F= -.14121879E+04 E0= -.14122111E+04  d E =-.396486E+00
 curvature: -22.43 expect dE=-0.955E+01 dE for cont linesearch -0.916E-01
 ZBRENT: bracketing found
 ZBRENT: interpolating
 opt :   3.1608  next Energy= -1412.261844 (dE=-0.470E+00)
 bond charge predicted
       N       E                     dE             d eps       ncg     rms          rms(c)
DAV:   1    -0.141217723310E+04    0.10687E-01   -0.23105E+01  4944   0.401E+00    0.122E+00
RMM:   2    -0.141225489642E+04   -0.77663E-01   -0.11565E+00  4985   0.953E-01    0.682E-01
RMM:   3    -0.141225066371E+04    0.42327E-02   -0.93373E-02  5437   0.259E-01    0.259E-01
RMM:   4    -0.141225011142E+04    0.55230E-03   -0.12462E-02  5396   0.952E-02    0.582E-02
RMM:   5    -0.141225013091E+04   -0.19489E-04   -0.10353E-03  5458   0.258E-02    0.283E-02
RMM:   6    -0.141225017897E+04   -0.48062E-04   -0.17966E-04  4979   0.106E-02    0.127E-02
RMM:   7    -0.141225023570E+04   -0.56735E-04   -0.30324E-05  3376   0.423E-03    0.771E-03
RMM:   8    -0.141225025677E+04   -0.21064E-04   -0.90418E-06  3077   0.255E-03    0.409E-03
RMM:   9    -0.141225030042E+04   -0.43653E-04   -0.56280E-06  2927   0.185E-03    0.238E-03
RMM:  10    -0.141225036477E+04   -0.64347E-04   -0.89251E-06  2809   0.169E-03    0.145E-03
RMM:  11    -0.141225041896E+04   -0.54194E-04   -0.89565E-06  2439   0.148E-03    0.850E-04
RMM:  12    -0.141225044554E+04   -0.26581E-04   -0.44610E-06  1979   0.117E-03    0.471E-04
RMM:  13    -0.141225045641E+04   -0.10870E-04   -0.15527E-06  1636   0.939E-04    0.322E-04
RMM:  14    -0.141225046482E+04   -0.84107E-05   -0.11232E-06  1534   0.869E-04
  48 F= -.14122505E+04 E0= -.14122711E+04  d E =-.459023E+00
 curvature: -18.10 expect dE=-0.416E+01 dE for cont linesearch -0.118E-02
 trial: gam= 0.71332 g(F)=  0.230E+00 g(S)=  0.000E+00 ort = 0.152E-01 (trialstep = 0.984E+00)
 search vector abs. value=  0.204E+01
 bond charge predicted
       N       E                     dE             d eps       ncg     rms          rms(c)
DAV:   1    -0.141239933767E+04   -0.14888E+00   -0.90754E+00  4956   0.260E+00    0.764E-01
RMM:   2    -0.141243525862E+04   -0.35921E-01   -0.50721E-01  4983   0.652E-01    0.441E-01
RMM:   3    -0.141243349514E+04    0.17635E-02   -0.37674E-02  5395   0.172E-01    0.180E-01
RMM:   4    -0.141243326730E+04    0.22785E-03   -0.60094E-03  5331   0.662E-02    0.390E-02
RMM:   5    -0.141243323654E+04    0.30752E-04   -0.48221E-04  5230   0.182E-02    0.165E-02
RMM:   6    -0.141243325466E+04   -0.18112E-04   -0.99488E-05  4811   0.801E-03    0.619E-03
RMM:   7    -0.141243326867E+04   -0.14010E-04   -0.13462E-05  3081   0.313E-03    0.306E-03
RMM:   8    -0.141243328350E+04   -0.14831E-04   -0.49020E-06  2930   0.203E-03    0.243E-03
RMM:   9    -0.141243329353E+04   -0.10036E-04   -0.17153E-06  2143   0.133E-03    0.145E-03
RMM:  10    -0.141243330904E+04   -0.15511E-04   -0.14328E-06  1919   0.115E-03    0.101E-03
RMM:  11    -0.141243333499E+04   -0.25945E-04   -0.42248E-06  2404   0.129E-03    0.627E-04
RMM:  12    -0.141243334322E+04   -0.82305E-05   -0.79583E-07  1506   0.880E-04
  49 F= -.14124333E+04 E0= -.14124557E+04  d E =-.182878E+00
 trial-energy change:   -0.182878  1 .order   -0.182261   -0.236518   -0.128004
 step:   2.0662(harm=  2.1439)  dis= 0.10298  next Energy= -1412.504613 (dE=-0.254E+00)
 bond charge predicted
       N       E                     dE             d eps       ncg     rms          rms(c)
DAV:   1    -0.141246801459E+04   -0.34680E-01   -0.10996E+01  4960   0.286E+00    0.840E-01
RMM:   2    -0.141251154096E+04   -0.43526E-01   -0.61423E-01  4983   0.717E-01    0.485E-01
RMM:   3    -0.141250938258E+04    0.21584E-02   -0.45386E-02  5397   0.189E-01    0.199E-01
RMM:   4    -0.141250909049E+04    0.29209E-03   -0.71864E-03  5327   0.723E-02    0.431E-02
RMM:   5    -0.141250905575E+04    0.34738E-04   -0.57822E-04  5226   0.199E-02    0.184E-02
RMM:   6    -0.141250907881E+04   -0.23057E-04   -0.12195E-04  4963   0.870E-03    0.731E-03
RMM:   7    -0.141250909438E+04   -0.15566E-04   -0.13283E-05  3105   0.314E-03    0.460E-03
RMM:   8    -0.141250910787E+04   -0.13495E-04   -0.57990E-06  2972   0.216E-03    0.313E-03
RMM:   9    -0.141250912648E+04   -0.18608E-04   -0.28607E-06  2665   0.153E-03    0.179E-03
RMM:  10    -0.141250914975E+04   -0.23274E-04   -0.20652E-06  2057   0.121E-03    0.127E-03
RMM:  11    -0.141250918841E+04   -0.38658E-04   -0.56784E-06  2523   0.136E-03    0.715E-04
RMM:  12    -0.141250920096E+04   -0.12547E-04   -0.98941E-07  1529   0.895E-04    0.479E-04
RMM:  13    -0.141250921369E+04   -0.12732E-04   -0.12413E-06  1555   0.913E-04    0.311E-04
RMM:  14    -0.141250921866E+04   -0.49723E-05   -0.43980E-07  1272   0.822E-04
  50 F= -.14125092E+04 E0= -.14125326E+04  d E =-.258754E+00
 curvature:  -9.07 expect dE=-0.123E+01 dE for cont linesearch -0.469E-03
 trial: gam= 0.45583 g(F)=  0.135E+00 g(S)=  0.000E+00 ort = 0.103E-01 (trialstep = 0.120E+01)
 search vector abs. value=  0.569E+00
 bond charge predicted
       N       E                     dE             d eps       ncg     rms          rms(c)
DAV:   1    -0.141263274450E+04   -0.12353E+00   -0.43983E+00  5028   0.186E+00    0.528E-01
RMM:   2    -0.141265221814E+04   -0.19474E-01   -0.25634E-01  4983   0.476E-01    0.317E-01
RMM:   3    -0.141265151697E+04    0.70118E-03   -0.19102E-02  5423   0.126E-01    0.134E-01
RMM:   4    -0.141265141297E+04    0.10400E-03   -0.31426E-03  5351   0.489E-02    0.270E-02
RMM:   5    -0.141265137404E+04    0.38925E-04   -0.24985E-04  5139   0.133E-02    0.125E-02
RMM:   6    -0.141265137839E+04   -0.43476E-05   -0.64972E-05  4416   0.626E-03
  51 F= -.14126514E+04 E0= -.14126754E+04  d E =-.142160E+00
 trial-energy change:   -0.142160  1 .order   -0.140529   -0.167748   -0.113311
 step:   2.9355(harm=  3.6983)  dis= 0.06332  next Energy= -1412.738232 (dE=-0.229E+00)
 bond charge predicted
       N       E                     dE             d eps       ncg     rms          rms(c)
DAV:   1    -0.141272026914E+04   -0.68895E-01   -0.91979E+00  4948   0.269E+00    0.761E-01
RMM:   2    -0.141276133476E+04   -0.41066E-01   -0.53652E-01  4991   0.689E-01    0.458E-01
RMM:   3    -0.141275978268E+04    0.15521E-02   -0.39696E-02  5423   0.182E-01    0.195E-01
RMM:   4    -0.141275960861E+04    0.17407E-03   -0.64803E-03  5351   0.701E-02    0.465E-02
RMM:   5    -0.141275955736E+04    0.51247E-04   -0.57621E-04  5406   0.190E-02    0.366E-02
RMM:   6    -0.141275945119E+04    0.10617E-03   -0.28858E-04  5024   0.110E-02    0.135E-02
RMM:   7    -0.141275946185E+04   -0.10657E-04   -0.17222E-05  3149   0.377E-03    0.534E-03
RMM:   8    -0.141275947742E+04   -0.15566E-04   -0.83428E-06  3021   0.255E-03    0.244E-03
RMM:   9    -0.141275949153E+04   -0.14113E-04   -0.30050E-06  2816   0.165E-03    0.167E-03
RMM:  10    -0.141275951119E+04   -0.19664E-04   -0.21648E-06  2182   0.126E-03    0.105E-03
RMM:  11    -0.141275953655E+04   -0.25359E-04   -0.31609E-06  2222   0.121E-03    0.661E-04
RMM:  12    -0.141275955063E+04   -0.14074E-04   -0.15541E-06  1685   0.965E-04    0.386E-04
RMM:  13    -0.141275955885E+04   -0.82273E-05   -0.83567E-07  1460   0.871E-04
  52 F= -.14127596E+04 E0= -.14127841E+04  d E =-.250340E+00
 curvature:  -6.83 expect dE=-0.565E+00 dE for cont linesearch -0.104E-01
 ZBRENT: extrapolating
 opt :   3.7230  next Energy= -1412.771162 (dE=-0.262E+00)
 bond charge predicted
       N       E                     dE             d eps       ncg     rms          rms(c)
DAV:   1    -0.141276356685E+04   -0.40162E-02   -0.18972E+00  5104   0.122E+00    0.345E-01
